LAMMPS data file via write_data, version 22 Jul 2025, timestep = 0, units = lj

2816 atoms
6 atom types
1408 bonds
1 bond types
1024 angles
2 angle types

27.039217138797486 42.96078286120267 xlo xhi
27.039217138797486 42.96078286120267 ylo yhi
27.039217138797486 42.96078286120267 zlo zhi

Masses

1 72
2 72
3 72
4 72
5 72
6 72

Bond Coeffs # harmonic

1 150 0.5

Angle Coeffs # cosine/squared

1 5 180
2 5 180

Atoms # full

2085 677 4 0 28.39095973358337 27.347102902448984 28.458043449913873 0 1 1
2751 1343 4 0 29.199562250953104 27.28395032432783 28.144595395961524 0 1 1
2433 1025 4 0 29.033891548972377 28.88103683655797 28.173119612986124 1 0 0
206 18 6 -1 30.998316615865438 27.806065835451964 27.429970917688767 0 0 0
207 18 3 0 30.796989054778837 27.38920884187233 27.74578510359785 0 0 0
213 18 1 0 31.049168498896158 27.321385349829693 28.342561602561307 0 0 0
214 18 1 0 31.33149105781884 27.59247088549758 28.727689319636806 0 0 0
1900 492 4 0 32.62334872613262 27.341487938594177 42.860494502293854 0 0 0
215 18 1 0 31.81593538406669 27.720045075260657 28.85463241584145 0 0 0
216 18 1 0 32.338872695499944 27.62593498058138 29.065814489607703 0 0 0
1022 86 6 -1 35.383749764297484 27.1721998966113 42.62407825624916 0 0 0
2019 611 4 0 34.530305624896705 27.573633693486812 28.103398610234038 0 1 0
538 45 1 0 38.1326087898135 42.743990493759725 42.763031099358614 0 -1 0
2374 966 4 0 38.34251371090441 28.97381958187937 27.133829727539364 0 0 1
168 14 1 0 41.18717400269405 27.85531056918753 27.484231824620757 0 1 1
167 14 1 0 40.967413675584474 27.616654906577338 42.90696767222134 0 1 0
1004 84 1 0 42.827712573941795 29.665180626334116 27.528019795544687 0 0 0
2356 948 4 0 28.176280297029372 27.39303224432206 27.103459222882265 0 0 1
2345 937 4 0 30.427948558487557 28.344662385162124 28.89780706707851 0 1 0
2257 849 4 0 31.59658372550716 28.972829947374585 42.15136512992344 1 0 0
2390 982 4 0 33.665780654183706 28.62501377648661 27.452125532165024 0 0 1
1026 86 2 0 35.366286202717205 27.953449250848312 27.861116808615694 0 0 1
1024 86 3 0 35.249377499974365 27.81539614475515 27.12608817831997 0 0 1
1023 86 3 0 35.44558060617169 27.475212727684994 42.75840828732221 0 0 0
1025 86 1 0 35.396777553226975 27.720090789430014 27.382837275897828 0 0 1
1629 221 4 0 36.62134944510788 28.410093670760908 27.565249740586893 0 1 0
1892 484 4 0 37.60577212438276 28.39064813906017 27.868657098065604 0 0 0
2115 707 4 0 39.396873017064 30.296818837680526 27.869320794693436 0 0 0
2202 794 4 0 40.53697007543079 28.437020045120022 28.503289482726444 0 1 0
226 19 1 0 41.86135807982409 28.405231202017482 41.77350771553198 -1 0 -1
2683 1275 4 0 42.786647401089695 28.015492874702204 27.674055083565307 -1 0 0
2213 805 4 0 28.577708637628493 30.12991320277175 28.687804779301736 0 0 1
1826 418 4 0 28.1522959755568 29.664789393963673 27.70886193317416 1 0 1
750 63 2 0 30.722746482106224 30.16046101347465 28.72015515851168 0 0 1
751 63 1 0 30.427315887118652 29.897834476243922 28.27086206405463 0 0 1
2010 602 4 0 32.73825091667965 29.938213188048355 42.33559216127765 0 1 0
2021 613 4 0 33.552769493736044 31.173588263975383 42.27067258121785 0 0 -1
1444 121 3 0 36.24275696315141 30.045413619068665 28.187981122868372 0 0 1
1449 121 1 0 36.150894953142995 30.13709765100311 27.7055228120825 0 0 1
1450 121 1 0 35.94661429593731 30.111368493715275 27.208054536712428 0 0 1
1443 121 3 0 36.029023600089516 29.651004377631843 28.47165886195344 0 0 1
1442 121 6 -1 35.88185819500103 29.166532789900593 28.725950343314864 0 0 1
2020 612 4 0 37.78541704342433 29.25829764188264 28.111499623561937 0 1 0
2800 1392 4 0 38.87654123159533 30.44010766300584 30.175259861070924 0 0 1
2781 1373 4 0 37.66208514791252 29.893373733430387 30.165952114270276 -1 0 0
1780 372 4 0 41.0192001497609 29.774038575290465 28.414452000088836 0 0 1
217 19 5 1 27.555291979345807 29.206259184179906 42.70742383630796 0 0 -1
2014 606 4 0 42.04126836813142 30.737594585412257 29.15187201510681 0 0 0
2638 1230 4 0 41.62936946976562 29.484559871728372 27.787704660945955 0 0 0
1478 124 6 -1 28.12203262313843 30.72751225751037 27.333021903851773 1 0 0
1477 124 5 1 28.637645802418774 30.918697917129695 27.379280568181123 1 0 0
1945 537 4 0 30.351525558859812 31.54443499086708 27.453881238048055 1 0 1
752 63 1 0 30.395249237596765 29.91357190442754 27.824976908060595 0 0 1
284 24 1 0 31.244684963240914 31.11157822053324 27.263800547183706 0 0 0
2384 976 4 0 32.574989565080884 31.44121108332517 28.7865295549207 0 0 1
2383 975 4 0 34.086634055704195 32.28466921432141 27.866721501200626 0 0 0
1598 190 4 0 33.75522476709973 30.81139033173732 27.2227833070351 0 0 1
257 22 1 0 36.60852225132113 31.00611648022093 28.122881647835044 0 0 0
258 22 2 0 36.77331357761328 31.033763854383473 27.69289464273275 0 0 0
255 22 3 0 36.572313539120394 31.2904923379708 28.451881950872405 0 0 0
2740 1332 4 0 37.71970611098892 30.402146365713264 41.41226919845809 0 1 -1
256 22 3 0 36.78712517122242 31.046745830645122 28.20072523274784 0 0 0
2024 616 4 0 38.08777505571314 30.39246800617429 27.759232692372443 0 0 0
2665 1257 4 0 38.452668293541144 31.48886210141881 28.4076272348872 0 0 0
1020 85 1 0 41.36480236722748 32.218856347496036 42.81182018850248 0 0 -1
1019 85 1 0 40.99631192365419 32.15401447877235 42.44669201789272 0 0 -1
1481 124 1 0 27.31839129101635 31.425659357488964 27.167036585706587 1 0 0
1480 124 3 0 27.206628440693983 31.390121409541358 27.299605734816982 1 0 0
1485 124 1 0 42.941979482598065 31.454806850486573 27.85654649102078 0 0 0
1479 124 3 0 27.64695986363878 31.091030250424723 27.318869716013246 1 0 0
374 32 6 -1 28.73890264365034 32.59561906261637 27.941920681313842 0 0 0
287 24 1 0 30.176737708349098 33.381063095822576 27.566677620324274 0 0 0
288 24 1 0 29.774665638740252 33.05602555101414 27.511303254722637 0 0 0
279 24 3 0 31.833824610879244 32.625362336846536 42.955585223552674 0 0 -1
285 24 1 0 31.137259158899425 33.091186623521004 27.71233770579831 0 0 0
278 24 6 -1 32.039223350479716 32.75018238387891 42.502189967753644 0 0 -1
286 24 1 0 30.690659676964994 33.46137688195711 27.68272659632949 0 0 0
282 24 2 0 31.772707640762174 31.806561929307296 27.584983954042873 0 0 0
281 24 1 0 31.94766422430591 32.149502202417516 27.356036909905278 0 0 0
280 24 3 0 31.369063826442016 32.71285644231011 27.354571469280682 0 0 0
1834 426 4 0 33.37933457038989 32.59751182848565 28.416028303037862 0 0 1
350 30 6 -1 35.208765265415174 32.59510068123134 27.61806025609716 0 0 1
360 30 1 0 35.81787206484384 34.12756080386476 27.199179101168497 0 0 1
359 30 1 0 36.05484956315063 33.63620885785564 42.91956856354243 0 0 0
2658 1250 4 0 39.43864426723793 31.378363756202727 27.790123880680117 0 0 0
1925 517 4 0 37.5591009633113 31.797916038809234 28.40777060576633 0 0 1
1733 325 4 0 40.17805433509976 31.762684561731078 27.06375964348252 0 0 0
2107 699 4 0 41.89013170252356 32.8029133007872 28.15976832145485 0 0 0
1088 91 1 0 42.77722994085964 34.28516323158363 27.574841574608413 0 0 0
375 32 3 0 28.608319269285857 33.13315161446199 27.90737168937253 0 0 0
377 32 1 0 28.617507139824127 33.547128978451745 27.574306762899614 0 0 0
378 32 2 0 28.758728990672797 33.84461212488724 27.039416119690223 0 0 0
376 32 3 0 28.421475429692958 33.51631489173649 27.688278887823785 0 0 0
1591 183 4 0 31.093796994041227 34.47748434244326 28.00770912182503 0 0 0
2684 1276 4 0 31.96397322635169 33.717942087166705 27.53953136267294 0 0 0
1837 429 4 0 32.05901225232035 35.23026191852143 28.60394307751176 0 0 1
143 12 1 0 35.05473726373984 34.81525619987317 28.2173242369707 0 0 1
144 12 1 0 34.737637610125894 35.02922113179624 27.850628924165818 0 0 1
2471 1063 4 0 38.1050677406744 33.05976563455158 27.521228371109906 0 0 0
2127 719 4 0 38.41992006143791 33.83808517673567 42.391740640445704 0 0 0
1597 189 4 0 37.141664553925004 33.782749871763635 27.412940167373552 0 0 0
2376 968 4 0 39.248399476510855 32.85997032004187 42.86183107565026 -1 0 0
1233 103 1 0 40.601294737354856 34.1046316224557 28.64314653725444 0 0 0
1777 369 4 0 40.13384681153043 33.735069813599004 27.802023422616788 0 0 0
1234 103 1 0 41.08734219678029 34.05237964802331 28.706626369555444 0 0 0
1235 103 1 0 41.628422425088665 34.15014969474092 28.630602012182077 0 0 0
1087 91 1 0 27.23723448044507 34.29768218033726 27.963637187382382 1 0 0
1086 91 2 0 27.609944299646557 34.066485924656895 28.13810581158085 1 0 0
1236 103 1 0 41.8493284439016 33.90105481323354 28.227102854994353 0 0 0
2030 622 4 0 42.61967755135304 35.29404696083846 27.377287926972883 -1 0 0
382 32 1 0 29.376704121632702 33.7815931932292 28.015174147825505 0 0 0
383 32 1 0 29.807392781991805 34.10721931280622 28.137164368283738 0 0 0
384 32 1 0 30.06280365449439 34.52171771212528 28.030437776792944 0 0 0
2466 1058 4 0 31.743208846648198 37.20354921913503 27.747816864864607 0 0 0
1931 523 4 0 32.28309316819477 35.18255864220507 27.44837236861725 0 0 1
2233 825 4 0 32.91193683741929 34.53466173031444 27.780959275765102 0 0 0
2055 647 4 0 34.46447552102411 34.180786478048205 27.627952997998825 0 0 1
1717 309 4 0 35.09658624220597 34.89524193536968 42.364668184539404 0 0 -1
2162 754 4 0 37.1958087113804 34.778575567784586 28.27889484048462 0 0 1
2448 1040 4 0 36.27362254534761 35.14157073213548 42.768397297661856 0 0 0
2363 955 4 0 39.07659369086868 34.68224550242218 27.618572094837926 0 0 0
332 28 1 0 41.61098255533945 36.01277131317593 27.39298667867023 0 0 1
331 28 1 0 41.29463913471757 35.715298793133314 27.22467357306633 0 0 1
330 28 2 0 41.13329771167936 35.32152316991289 27.220352364846292 0 0 1
325 28 5 1 40.71504429899128 33.77426833115067 42.82094417297533 0 0 0
327 28 3 0 41.004735999355475 34.36072823704968 27.08714515159252 0 0 1
329 28 1 0 41.038985733148245 34.84643722223516 42.9063627603083 0 0 0
328 28 3 0 41.32145162212823 34.11698955519125 42.70139051578344 0 0 0
248 21 1 0 27.98146542708077 35.41497665043693 27.249470894973765 0 0 0
2314 906 4 0 42.9427271378855 35.83632418037744 28.831011865065154 0 0 1
2421 1013 4 0 29.380078129549492 36.28959436907935 27.069443098698915 1 0 0
1664 256 4 0 30.237948950668642 35.76994923577945 27.251262599258755 0 0 1
1869 461 4 0 33.88882894238979 37.59788369113314 27.151967255384495 0 0 0
1789 381 4 0 31.617462500984583 36.13388130379207 28.533937433247385 0 0 0
1588 180 4 0 33.43141769775448 35.75044614563625 27.984578764800386 0 0 0
661 56 5 1 34.663695962233035 36.39949459570816 42.94967705239643 0 0 -1
662 56 6 -1 35.088069347276594 36.24689283847222 27.22310711537125 0 0 0
22 2 1 0 36.4516878929033 35.95299300435497 27.777842098348618 0 0 0
23 2 1 0 36.693532991930255 36.38756824507162 27.463950665670588 0 0 0
24 2 1 0 36.5399793130574 36.76039414944829 27.208149224153605 0 0 0
21 2 1 0 36.207368304660996 35.80510619577584 28.23397986242527 0 0 0
1333 112 5 1 38.96342920444072 36.536370861527026 42.909098083758074 0 0 -1
1334 112 6 -1 38.56969467077333 36.47268003329232 27.191703162603172 0 0 0
1739 331 4 0 39.68753744139285 35.930741810388795 27.899953345846463 0 0 0
588 49 1 0 42.352467323930675 36.602702788240805 27.3749706490691 0 0 1
1644 236 4 0 29.783300432286598 37.13207472271513 27.610522758836915 1 0 1
1546 138 4 0 28.848490487769517 38.011847763873135 27.31718665510514 0 0 0
2056 648 4 0 28.31019102275228 36.12031537139546 28.759034220812897 0 0 0
1734 326 4 0 30.835018309327193 37.604460090059945 27.16144499189417 0 0 0
2510 1102 4 0 31.515975753784044 37.71972409762107 42.201259018782835 0 0 -1
925 78 5 1 34.14402423300051 39.026244029939285 27.292193859505012 0 0 0
664 56 3 0 34.6483210114611 36.82200728006943 27.803025215840016 0 0 0
663 56 3 0 34.8719594568815 36.52967995217061 27.624575090519713 0 0 0
665 56 1 0 35.00473343002753 36.977640679639215 27.963506291704626 0 0 0
1619 211 4 0 37.89000974820206 39.18105183627407 42.346573283597934 0 0 -1
2811 1403 4 0 39.77123243200197 37.18359955987334 27.896192759127562 0 0 0
2178 770 4 0 27.507012549668524 37.09975200972776 28.27574170201772 1 0 0
967 81 1 0 27.76936006257339 39.33514926908314 42.90168910984626 0 0 -1
252 21 1 0 28.06176278299017 37.57837678504983 27.433121333177624 0 0 0
1876 468 4 0 31.779213075656415 38.64366716520752 42.6883700550161 0 0 -1
1802 394 4 0 30.060880918395043 38.61947906967924 27.5924217568934 0 0 0
926 78 6 -1 33.694307772776106 39.22190362088804 27.284151962735468 0 0 0
927 78 3 0 33.19454827892561 39.10349020450497 27.094978932568228 0 0 0
928 78 3 0 32.70087247266837 39.03410136672551 42.93798244149044 0 0 -1
933 78 1 0 32.92338562189905 38.666538463624384 42.933865874232254 0 0 -1
2394 986 4 0 36.15526783021785 39.60934637821197 27.39407170921844 0 0 1
1709 301 4 0 37.330968530800654 39.61761317794291 28.46204355534888 -1 0 0
1704 296 4 0 38.943196820115496 38.97091539045047 28.995506708118597 0 0 0
1962 554 4 0 39.4688902756561 37.47118564835911 42.86972562945679 0 0 -1
1410 118 2 0 39.98931707390083 38.406203138597704 27.62083943875642 0 0 0
1412 118 1 0 39.12662200665912 38.314296620592174 28.013384861913 0 0 0
1411 118 1 0 39.49013418438586 38.33699635178292 27.66822369972811 0 0 0
2006 598 4 0 41.90912891503187 37.42928700324313 28.228351445917227 0 0 1
968 81 1 0 27.864948625519148 38.89020174754551 27.267963225038866 0 0 0
965 81 1 0 27.082207868595514 39.89510201833734 42.76298613229233 0 0 -1
966 81 2 0 27.380031897731108 39.59275637304476 42.848856614520415 0 0 -1
2180 772 4 0 30.57220957586635 40.75385623075955 27.17172153579437 1 0 1
931 78 1 0 31.841253810110484 39.044809207601645 27.588923117290232 0 0 0
932 78 1 0 31.496516439201628 39.340465323343906 27.49285292587309 0 0 0
929 78 1 0 32.69230113106999 39.2439565096775 27.202447631124564 0 0 0
930 78 2 0 32.32685132950721 39.05991901582057 27.48942626911776 0 0 0
1731 323 4 0 33.72197955883264 39.99741134539484 28.745155662619645 0 -1 0
2475 1067 4 0 35.67368034922427 39.71388339090576 42.11712908266236 0 -1 0
2613 1205 4 0 39.24342099463772 41.117286963632566 41.36018294604474 0 0 -1
2325 917 4 0 36.682606943680355 39.28103409831689 29.21317731840352 0 0 0
2452 1044 4 0 39.48227028066532 40.310303817782014 27.085271415187858 0 0 0
961 81 5 1 42.82968826872588 41.05648329993225 27.814944887604128 -1 0 0
964 81 3 0 42.665146722294224 40.26076368584665 42.63671966325901 -1 0 -1
969 81 1 0 27.11694708635456 40.69806970641293 42.63774890528968 0 0 -1
963 81 3 0 42.85560825324132 40.22166012447114 27.266466374264283 -1 0 0
962 81 6 -1 42.801941540027734 40.48598564124609 27.731251061310317 -1 0 0
2734 1326 4 0 30.253931868487303 40.20347827447114 28.413200321152647 0 0 0
2642 1234 4 0 32.07786989626078 40.74764921774937 27.667143544850024 0 0 1
2574 1166 4 0 31.575614856113702 42.324556443611165 28.035838482502296 0 -1 1
2678 1270 4 0 34.44323209969713 42.636320279621785 28.025121454117247 0 0 0
2480 1072 4 0 35.53965377005574 41.58485514064514 27.402556470363706 0 -1 0
2607 1199 4 0 38.61699957786404 41.74864086988748 42.157863002917715 0 0 0
1821 413 4 0 39.06544809848111 40.57279857219788 28.392497192457608 0 0 1
1796 388 4 0 39.228454195796616 41.192995358011146 42.68587834570696 0 0 0
1537 129 4 0 39.82325055974 40.338233373663634 28.002109027395264 0 0 0
2012 604 4 0 42.142046313454095 42.04044334554898 42.55827599475626 -1 0 0
1863 455 4 0 28.975379652402435 40.46671482024846 28.799902761250472 1 0 1
1819 411 4 0 27.7426236172413 42.74870148687962 27.80933071712754 1 0 0
209 18 1 0 30.40704158225261 42.886013371181114 27.794693231497504 0 -1 0
211 18 1 0 29.79227808547726 42.21321458522051 27.950432769945234 0 -1 0
210 18 2 0 30.158750022382552 42.510094425214085 27.895191047225893 0 -1 0
1886 478 4 0 35.98312554666359 41.41614678631451 42.36022604560438 0 -1 -1
539 45 1 0 37.724069229612276 42.49679358123196 27.12376490575189 0 -1 1
540 45 1 0 37.29083379354819 42.05808976616136 27.10579012582964 0 -1 1
2478 1070 4 0 37.78296098634925 41.442073740636076 29.381883062204096 0 0 0
166 14 1 0 40.9124804024024 27.232911802808196 42.78514546700781 0 1 0
165 14 1 0 40.86265759987203 42.886981326619846 42.30485684107646 0 0 0
2161 753 4 0 41.92029513223051 27.753360187041448 42.50032648686888 0 1 -1
2580 1172 4 0 42.63571683775371 41.64795541877898 28.082251668254187 -1 -1 0
999 84 3 0 27.20968095872118 28.753811598742875 29.094236774428655 1 0 0
1000 84 3 0 27.050493874930606 28.314283901985963 29.136170668767456 1 0 0
1001 84 1 0 42.88868739315669 28.82808599178991 28.633954687492174 0 0 0
2156 748 4 0 29.346356815271022 27.592394220534107 29.026847337290846 0 1 0
208 18 3 0 30.88273899335267 42.88499223902003 28.16493542052712 0 -1 0
1922 514 4 0 34.22795428094941 27.895299346074328 28.665439464863727 0 1 0
1028 86 1 0 35.4778193039414 28.321681100067966 28.551852493818686 0 0 1
1156 97 3 0 36.03320211828689 27.39393646839893 29.07493234717357 0 1 0
1161 97 1 0 36.266371750101875 27.545215753224404 28.651111843171837 0 1 0
1162 97 1 0 36.4765382477826 27.452970223697463 28.36357430463952 0 1 0
1163 97 1 0 36.918015344482654 27.5175750016917 28.115938257176495 0 1 0
1164 97 1 0 37.05512817063429 27.465469911436255 27.58011816254747 0 1 0
234 20 2 0 38.471937092170286 27.78120227656175 29.543354393118534 0 0 0
233 20 1 0 38.44398996867688 28.33786017664721 29.538794546283896 0 0 0
2286 878 4 0 38.41910194251205 27.739628289730348 27.27751689617786 0 1 1
235 20 1 0 38.54716174801279 27.358604339214526 29.28486053750482 0 0 0
236 20 1 0 38.91634956948769 42.89051548617075 29.281640025929395 0 -1 0
1273 107 5 1 39.81114563852844 42.319577055644324 29.785735523503135 0 -1 0
1274 107 6 -1 40.273165087976665 42.46076179993515 29.702495063414826 0 -1 0
1008 84 1 0 42.21873626494323 27.26132121205074 28.28920509762185 0 0 0
1005 84 1 0 42.52495321561916 28.062486876250677 29.245297946340024 0 0 0
1006 84 1 0 42.08275967398241 27.720373620122395 28.951362887119203 0 0 0
1007 84 1 0 41.96318927420571 27.30281623832859 28.6911316704348 0 0 0
1003 84 1 0 42.85275834625963 29.162737357538553 27.75649513268457 0 0 0
1002 84 2 0 42.92381709572142 28.829396889344693 28.138965194906575 0 0 0
998 84 6 -1 27.498654783420452 28.99422932868171 29.222604561894787 1 0 0
2702 1294 4 0 29.69051246301096 28.32016190298673 29.655956850343905 0 0 0
2061 653 4 0 30.051809920948894 29.207131732731767 29.831021783544614 0 0 1
2215 807 4 0 32.27651870211906 28.62993279014547 30.656900935052306 0 1 0
2073 665 4 0 33.40422564842484 30.33367620292685 29.006824486294416 0 0 0
2651 1243 4 0 34.92435315955447 29.244716256427758 28.87919670500571 0 0 0
2276 868 4 0 33.8284015848936 30.866228414413097 30.254067955425615 0 1 0
1027 86 1 0 35.631171114070426 27.93358661594298 28.26941775143214 0 0 1
1446 121 2 0 36.319300970734915 30.345058875263618 28.897737317916896 0 0 1
238 20 1 0 37.16777688738532 28.375750285671224 29.923421218027197 0 0 0
1448 121 1 0 36.09811832957196 30.705129166739344 29.70463689909216 0 0 1
237 20 1 0 37.63969395481422 28.233240351523687 29.95405919247856 0 0 0
231 20 3 0 38.33925910468656 28.643131825906735 29.31339295271147 0 0 0
2537 1129 4 0 40.98622031321184 27.30465051653641 30.467389994856706 0 0 0
1729 321 4 0 28.546121583193145 29.165910237048767 28.934221734612485 0 0 0
2295 887 4 0 28.383466423705407 29.754971467095498 30.634663509240436 0 0 0
749 63 1 0 31.17746318857154 29.91301640103979 28.91358080919907 0 0 1
746 63 6 -1 31.581658300801784 29.58264970354027 29.765352367678666 0 0 1
747 63 3 0 31.344343666332907 29.712676682155955 29.442195582358284 0 0 1
748 63 3 0 30.889171438374735 29.75200229722303 29.173933875026222 0 0 1
753 63 1 0 30.404479034004005 29.97702866676581 29.498115478685023 0 0 1
745 63 5 1 31.619549058298155 29.00502192365538 29.460663811995722 0 0 1
2183 775 4 0 33.074576379275655 30.523252988711892 27.927451213723124 0 0 1
1550 142 4 0 32.08666893808469 29.019160355216734 42.953432649502076 0 0 -1
2165 757 4 0 34.00389809984812 28.720880174127096 41.8961327125932 0 1 -1
2604 1196 4 0 34.610242491717976 30.59606521273531 30.005432537951158 0 0 0
1445 121 1 0 36.21437762892214 30.022679352365426 28.513910610087265 0 0 1
1441 121 5 1 36.20209044483373 29.473876425981974 28.49630997852477 0 0 1
263 22 1 0 37.220123709487304 31.123134006004804 29.737250142134815 0 0 0
2338 930 4 0 39.3720750624353 31.03077931415924 28.55943979059223 0 0 0
2131 723 4 0 41.79735597200158 29.800548282473653 29.2730059027118 -1 0 0
2571 1163 4 0 42.06433323261302 29.337654472323454 30.28016071230757 -1 0 1
1957 549 4 0 28.797734234130182 31.417274809622416 28.324043232833336 0 0 1
2548 1140 4 0 27.637890159812383 30.850963452427635 30.070801236148935 0 0 1
1708 300 4 0 30.152795206144045 31.088689636783535 28.94756557437027 0 0 0
283 24 1 0 31.402770104186274 31.438629330141225 27.575957037664057 0 0 0
2329 921 4 0 31.048396178869147 31.522392663676783 28.32393002797393 0 0 0
2270 862 4 0 32.95901492188892 31.667275668647484 29.875064658069824 0 0 0
2176 768 4 0 34.6344810589721 31.839764764402545 28.34987094143056 0 0 0
2516 1108 4 0 34.55436985580357 30.66935351834245 29.003348665005163 0 0 0
253 22 5 1 35.84922293662442 31.334334548699854 28.575316089309638 0 0 0
254 22 6 -1 36.25662332846258 31.619499254734517 28.642663372398165 0 0 0
262 22 1 0 36.98301618119161 31.079953363249352 29.24848767036107 0 0 0
261 22 1 0 36.83606876226301 31.0585875846811 28.685412067117912 0 0 0
1851 443 4 0 39.08266469818735 32.003819551446 29.092911657696167 0 0 1
1808 400 4 0 41.2254857204557 30.921222982781018 28.666910585737735 0 0 0
1487 124 1 0 42.48771116992582 31.855164783265828 28.428037885559768 0 0 0
1486 124 1 0 42.521689746204245 31.711888692797 28.00360114340494 0 0 0
2226 818 4 0 41.48493410898412 32.18195503792553 29.69898401209449 0 0 0
1488 124 1 0 42.43466544544263 31.88065756488286 28.900123317091364 0 0 0
1090 91 1 0 27.325278036813497 32.80075200899725 28.687396872864717 1 0 0
1089 91 1 0 27.231338704093897 33.23999631448105 28.61259074092069 1 0 0
373 32 5 1 29.12551959061751 32.766575037702225 28.19496197617842 0 0 0
769 65 5 1 29.032304228582753 33.038823236363754 29.251119429924728 0 0 0
1920 512 4 0 30.31701140910342 32.26940385030862 28.60007715792059 0 0 1
833 70 1 0 31.810908981240537 33.17321533864661 29.140715131675726 0 0 0
829 70 5 1 31.1427825897582 32.201082335173766 29.663152342848832 0 0 0
834 70 2 0 32.34398843460471 33.21750447573038 29.152557243702404 0 0 0
830 70 6 -1 31.01995374550147 32.74394211528066 29.332469994022368 0 0 0
140 12 1 0 34.29137004933384 33.01813673570516 30.37149489403694 0 0 1
139 12 1 0 34.40669298536311 33.50217112045921 30.304727858834248 0 0 1
1042 87 1 0 35.2298035869323 32.3987975596911 28.935104254639754 0 0 0
2744 1336 4 0 36.30012376459452 32.49448606340918 27.894878010113118 0 0 0
1641 233 4 0 36.04070824212917 33.53036513675802 27.85669057187866 0 0 1
2120 712 4 0 37.55663218247969 32.814974990450146 29.758009300089025 0 0 1
1225 103 5 1 40.43201134507796 32.47206113397595 28.35479464189996 0 0 0
2685 1277 4 0 39.03215616887226 32.48609242123899 30.47477626009128 -1 0 1
2729 1321 4 0 41.54999110170713 31.517511312760377 27.490728749440553 0 1 1
1778 370 4 0 41.429543152161955 33.0118356668216 29.154154430394378 0 0 0
1085 91 1 0 27.692657361970102 33.83222931406475 28.51586123182898 1 0 0
1084 91 3 0 27.39293841840051 33.67382474659769 28.542125263302882 1 0 0
1082 91 6 -1 27.351541957473913 34.072083226084715 29.448757934128796 1 0 0
1081 91 5 1 27.79216496375426 34.119306833969056 29.369377124684377 1 0 0
1083 91 3 0 27.536053470850806 33.85221970526078 28.988426375216594 1 0 0
381 32 1 0 28.85332246492278 33.72103285543258 27.956959712968903 0 0 0
1814 406 4 0 29.652564508686254 33.92036838962949 42.47253975425191 0 0 -1
2550 1142 4 0 30.422214257064866 33.49949864566351 28.64783808126849 1 0 0
835 70 1 0 32.69061844604165 33.5176201975561 28.958490017752148 0 0 0
138 12 2 0 34.46727356087116 33.83861970026677 29.976393615138207 0 0 1
836 70 1 0 33.012484421062695 33.74404590211942 28.74551799588387 0 0 0
142 12 1 0 35.400817988115456 34.77180604888487 28.597755775820225 0 0 1
141 12 1 0 35.46034325326028 34.45458958756592 28.967469171068725 0 0 1
136 12 3 0 35.118165911818785 34.31534842739093 29.29618956626888 0 0 1
1610 202 4 0 36.056588829940104 35.02537461081285 29.856339468299367 0 0 1
2422 1014 4 0 38.68458318134377 32.833186268924905 28.969532341739935 0 0 0
1226 103 6 -1 40.257916749656076 32.75465018570709 28.733862896540757 0 0 0
1228 103 3 0 40.340781962208325 33.69221091235994 28.871817884442557 0 0 0
1229 103 1 0 40.4955749778063 33.552781647864535 29.253113459252482 0 0 0
1227 103 3 0 40.36246707597853 33.291963958275495 28.843002394619628 0 0 0
1230 103 2 0 40.475394982775384 33.607975616920655 29.668239431946137 0 0 0
1558 150 4 0 42.40101442778244 33.685972051482615 29.40593818081445 0 0 0
1865 457 4 0 27.593438206843548 36.07854780581337 28.102481527366454 1 0 1
1577 169 4 0 27.40361703179993 35.13185054708939 29.48968667580635 0 0 0
2335 927 4 0 29.237484670552483 36.29222327509366 29.61931423239758 0 0 0
1682 274 4 0 33.926823714157806 34.324842372954095 29.278635098803093 0 0 0
19 2 1 0 36.059023629122905 36.15152157125091 29.7993561149305 0 0 0
18 2 2 0 36.05813317399279 36.377966503380016 29.307496029738683 0 0 0
17 2 1 0 36.28415872071289 36.423651666479046 28.966155154999765 0 0 0
2124 716 4 0 37.40282721564013 35.6245497771791 29.22352680229891 0 0 1
2258 850 4 0 37.91436063840409 33.88017029004451 28.153563262857897 -1 0 0
1948 540 4 0 40.081193549790235 34.83172285963924 28.468514411724957 0 0 0
1726 318 4 0 31.93334251457474 35.98591806220101 30.855427643055677 1 0 0
2691 1283 4 0 32.98714961371502 36.11610346653461 29.52376180463668 0 0 0
2274 866 4 0 33.10128312110827 34.657755933783456 29.086635402761356 0 0 0
16 2 3 0 36.06917415839038 36.16981594975869 28.738449624546348 0 0 0
672 56 1 0 33.77938041328646 36.05031391965076 29.246130221799838 0 0 0
671 56 1 0 34.11649671424931 36.24520326951842 29.001424462043644 0 0 0
670 56 1 0 34.203848723515364 36.40672876403759 28.572481987472518 0 0 0
15 2 3 0 36.640712209492165 36.30123719365621 28.673338858071055 0 0 0
13 2 5 1 37.16338279826182 36.032206771751454 28.295387677245234 0 0 0
14 2 6 -1 37.18513600461982 36.391801301879134 28.64965159482769 0 0 0
2614 1206 4 0 38.05458566132919 36.531249809578625 29.77033655892696 0 0 0
2761 1353 4 0 38.845257995095835 35.67133855753056 29.530795931420354 0 0 1
1436 120 1 0 38.59663909103236 36.73987757737004 28.890200460094416 0 0 0
1713 305 4 0 41.76132674269084 37.63561394859972 42.54558738395947 0 0 -1
457 39 5 1 40.3419059380537 35.445234181446125 29.12659126704818 0 0 0
466 39 1 0 41.2360086173946 36.32806231760763 28.508748200098374 0 0 0
467 39 1 0 41.579349597537245 36.09724037058062 28.33890735056558 0 0 0
468 39 1 0 42.06382558684835 35.94214380780667 28.45402290608125 0 0 0
1828 420 4 0 27.950071480505724 38.17885785844062 30.799718397488455 1 0 0
416 35 1 0 31.087509012166677 38.23360191170771 29.071979126444184 0 0 0
1989 581 4 0 30.25779577893473 36.61408454361981 28.508043399479206 0 0 0
414 35 2 0 31.889468915986686 37.8021676393353 28.84418309039959 0 0 0
415 35 1 0 31.380390848623286 37.89994926637498 28.896871145557693 0 0 0
413 35 1 0 32.32676751905994 37.85637090256901 28.7324677111205 0 0 0
410 35 6 -1 33.04472695289585 37.53053877084109 28.894321475711944 0 0 0
409 35 5 1 32.994495398762425 37.23842645998028 28.375720235010693 0 0 0
411 35 3 0 32.767229045129255 37.86805782507585 28.619441338538564 0 0 0
2308 900 4 0 33.913639804443854 38.14446347803467 28.582592740694878 0 0 1
669 56 1 0 34.35186912728577 36.50732598048802 28.14047738128872 0 0 0
666 56 2 0 35.257074410745346 37.30804926291495 28.106543616622957 0 0 0
667 56 1 0 35.48687474971239 37.63541990423931 28.5515901055778 0 0 0
1615 207 4 0 36.772466674179014 38.156015511177344 27.439025302263875 0 0 0
1552 144 4 0 37.131269626173804 36.72521727975302 29.915990045528464 0 0 0
2377 969 4 0 38.27159153411268 37.61618350408733 27.56973361045283 0 0 0
1435 120 1 0 39.06270739027728 36.53843333504476 28.897061025807016 0 0 0
200 17 1 0 41.86982049848515 38.414112655756746 29.10634873612704 0 0 0
2730 1322 4 0 42.71420231806319 39.960237839343854 28.41560921825187 -1 0 0
1617 209 4 0 29.41411019390894 37.80259610402797 28.412518207683362 0 0 1
2490 1082 4 0 31.399185811071817 39.201429485311365 29.075977399113132 0 0 1
1567 159 4 0 30.59560886751199 39.45586385730265 28.255186376368005 0 0 0
417 35 1 0 32.630372138013925 38.65604615904447 28.667455577027916 0 0 0
412 35 3 0 32.6061712706253 38.24301932993006 28.5073621622415 0 0 0
418 35 1 0 32.72763023175382 39.1993039204828 28.818459443888745 0 0 0
419 35 1 0 32.9921924484363 39.551987655605984 29.149682430063415 0 0 0
668 56 1 0 35.536367180291144 37.91394999593444 28.812884742023144 0 0 0
1914 506 4 0 34.90834493771221 39.2012550843894 28.540739023099277 0 0 0
2710 1302 4 0 35.8925903880861 38.745542545501294 29.309147718230122 0 0 0
2016 608 4 0 41.139616718628844 39.804429637937005 28.320827289250953 0 0 0
2349 941 4 0 27.051819594848904 37.98674997003795 28.745443388126652 0 0 1
2217 809 4 0 27.68576970271585 38.67866263375876 29.45923042161139 0 0 0
2439 1031 4 0 28.064937510940737 38.38725049800837 28.545363035080783 0 0 1
2699 1291 4 0 29.716943055895563 40.610673913248256 29.536849582537513 0 0 1
632 53 1 0 30.961915221943844 40.31020290400162 29.584754184809903 0 0 0
631 53 1 0 30.93757300750323 39.822026789079096 29.792990063108395 0 0 0
420 35 1 0 33.15400585308518 39.393432673684735 29.48328903886682 0 0 0
2476 1068 4 0 33.35555210644381 38.755412173797666 28.12388505621677 0 -1 0
2366 958 4 0 35.28613764257607 41.25040338769456 29.038828429277658 0 0 0
2104 696 4 0 35.74617212158846 39.97985832936961 28.828862913113092 0 0 1
2171 763 4 0 38.8086637757019 39.37196508280463 30.22668039007831 0 0 0
1816 408 4 0 40.3439872635124 39.28634104518452 28.114065030793054 0 0 0
2555 1147 4 0 27.24394572664653 41.39271873830895 29.512798868831965 0 0 0