Lipid soup setup

8798 atoms
2816 bonds
2048 angles
0 dihedrals
0 impropers

6 atom types
2 bond types
3 angle types
0 dihedral types
0 improper types

0 14.918660180223661 xlo xhi
0 14.918660180223661 ylo yhi
0 13.17659081697952 zlo zhi

Masses

1 1
2 1
3 1
4 1
5 1
6 1

Atoms

1 1 5 8.861242189860825 0.5141451247816915 0.6387679851318553 3.3820759944223964
2 1 6 -8.861242189860825 0.6502819527463882 0.4537564425580304 3.765311118488155
3 1 3 0.0 0.6053617628077349 0.42574645792231103 4.265987362433832
4 1 3 0.0 0.3535570443039735 0.7633709313165196 4.331212487916047
5 1 1 0.0 0.6326270276317045 0.26093413513044794 4.800800480466904
6 1 2 0.0 0.9186396014633263 0.4301095118348335 5.112363221310979
7 1 1 0.0 0.8184213878874586 0.25248965587497274 5.522838272920602
8 1 1 0.0 0.8857169687345254 0.22420206752595334 6.002879687583684
9 1 1 0.0 0.4489122751035903 1.0106490309602028 4.766588537944846
10 1 1 0.0 0.3025346054585241 0.8358777854423913 5.206119588486558
11 1 1 0.0 0.49261031693316315 0.8892885809776601 5.608370035045931
12 1 1 0.0 0.4826069881038153 0.8177983970244627 6.094843454946919
13 2 5 8.861242189860825 0.5967046504139971 2.0424525550777632 3.7172398921372807
14 2 6 -8.861242189860825 0.44616001205932077 1.8841654366460483 4.10700028921833
15 2 3 0.0 0.4291477605917676 1.9282749528788243 4.608242763309148
16 2 3 0.0 0.7294971131653314 2.2260131562935017 4.661086371491095
17 2 1 0.0 0.2882541700076858 1.8817222312696291 5.148532877852556
18 2 2 0.0 0.5069755845974157 1.624951444927528 5.4546775299963715
19 2 1 0.0 0.3310116900333798 1.7018585408717504 5.8708557105401695
20 2 1 0.0 0.3290019003459285 1.6347072803107654 6.351745834787241
21 2 1 0.0 1.0025530828057374 2.169964143022723 5.087806805848332
22 2 1 0.0 0.8238251216587268 2.293176035649213 5.532817030720187
23 2 1 0.0 0.9174631232720609 2.1155540082114106 5.9334031649688175
24 2 1 0.0 0.8619273951020777 2.118814506155499 6.422046647795796
25 3 5 8.861242189860825 0.37618193113121356 2.9287866875150836 3.4705764513596753
26 3 6 -8.861242189860825 0.5145426843972352 3.0895770097230466 3.8638123110818676
27 3 3 0.0 0.5982063401157646 3.0076006730270852 4.353464592694739
28 3 3 0.0 0.40705228656389625 2.6287430247760613 4.3931789284192435
29 3 1 0.0 0.7768380701188624 3.045916910939411 4.883138207837662
30 3 2 0.0 0.5265334168750729 3.1946259275230284 5.233463843363199
31 3 1 0.0 0.7615055848584676 3.137902852074511 5.622890145174347
32 3 1 0.0 0.7957870697124643 3.1586232673243626 6.106795184242924
33 3 1 0.0 0.1777005320346749 2.559682067270557 4.843089742232058
34 3 1 0.0 0.4321349260694417 2.457310319553079 5.255330108065268
35 3 1 0.0 0.33422268312584485 2.5607307182882444 5.680188113446747
36 3 1 0.0 0.44098417913659493 2.53039588023369 6.159300920444476
37 4 5 8.861242189860825 0.7856678896798075 4.499086122720046 3.402158927845047
38 4 6 -8.861242189860825 0.963670851868016 4.488438445425941 3.8118334810601535
39 4 3 0.0 0.9326130200848528 4.3254603407963845 4.287178232215834
40 4 3 0.0 0.536327302668324 4.1687486522359904 4.280157183158692
41 4 1 0.0 1.0487257671335266 4.184400492384048 4.816849372423535
42 4 2 0.0 0.9322955565113045 4.427794367661579 5.18386200093512
43 4 1 0.0 1.0388233683900725 4.192248938225456 5.562349051605994
44 4 1 0.0 1.0393062633886716 4.138682225301601 6.044945173354642
45 4 1 0.0 0.28353519029942886 4.227610566140266 4.718817423616517
46 4 1 0.0 0.3725634947213258 3.9431608345650195 5.114192266062771
47 4 1 0.0 0.3338714593164167 4.044447764322162 5.548968984834732
48 4 1 0.0 0.3550353445648288 3.9052891066986364 6.020195320292655
49 5 5 8.861242189860825 0.42076039822430206 5.362703923342373 3.7444680107273554
50 5 6 -8.861242189860825 0.38716516441910187 5.537035502486458 4.154482068913458
51 5 3 0.0 0.5563591842860875 5.550106089029818 4.628488004913876
52 5 3 0.0 0.8123834952860558 5.20949287161527 4.61930069904397
53 5 1 0.0 0.6658707458800065 5.699265863587834 5.1573454026699155
54 5 2 0.0 0.46496711842509164 5.522400673426397 5.525925487508675
55 5 1 0.0 0.6669111343526061 5.687396318354665 5.902856944332372
56 5 1 0.0 0.722309136913301 5.701895293477272 6.385028577343442
57 5 1 0.0 0.8261100623545643 4.949996735801127 5.057780710443533
58 5 1 0.0 1.0799808446526002 5.11106736437811 5.451182328800736
59 5 1 0.0 0.9960551113527378 5.0467855102634545 5.88662603980272
60 5 1 0.0 1.1284152608674094 5.103903755174467 6.356823443217745
61 6 5 8.861242189860825 0.9401104725520811 6.545474357290215 3.6579104341760105
62 6 6 -8.861242189860825 0.9223154890607652 6.785460413843977 4.034369858754346
63 6 3 0.0 0.8586190064518762 6.7930436221051576 4.533733791183083
64 6 3 0.0 0.7226714023453524 6.393264914330916 4.591573673943162
65 6 1 0.0 0.853647851703166 6.941983337365209 5.07384842389446
66 6 2 0.0 0.4867267911918396 7.086211327990624 5.302019552717828
67 6 1 0.0 0.59274653947076 7.1342101678386305 5.745345838770869
68 6 1 0.0 0.46943570156490455 7.230600237366869 6.204989216183379
69 6 1 0.0 0.37610067014306275 6.344931152882067 4.962173132426162
70 6 1 0.0 0.4999055013041745 6.355863881512806 5.441455715091883
71 6 1 0.0 0.2590658242732161 6.497436503297216 5.791798909200501
72 6 1 0.0 0.21274103059590832 6.5581845297069155 6.277629118262858
73 7 5 8.861242189860825 0.2794180230148575 8.243303134434422 3.4122641466014727
74 7 6 -8.861242189860825 0.13215972632512543 8.371249647026753 3.8142297559550995
75 7 3 0.0 0.22009758035608207 8.412934179088875 4.308201837727098
76 7 3 0.0 0.5765532937244437 8.18074140465705 4.3342029569020495
77 7 1 0.0 0.19820431899478194 8.558835225294088 4.848724859857901
78 7 2 0.0 0.022293730901786935 8.302741585560032 5.181840987716748
79 7 1 0.0 0.1015189772306257 8.503905455221247 5.585992852050593
80 7 1 0.0 0.0821653384646257 8.507786372305212 6.071151607301886
81 7 1 0.0 0.6189216360665066 7.915865224316059 4.767604521502446
82 7 1 0.0 0.7454777026365234 8.13001118091783 5.195721358483084
83 7 1 0.0 0.6302683295588232 8.015377264120342 5.613301023222911
84 7 1 0.0 0.6693320963480454 8.086118941317048 6.098416410003341
85 8 5 8.861242189860825 1.1023886544348005 8.929174064946096 3.6273026199161773
86 8 6 -8.861242189860825 1.2015133732010184 8.8684847337362 4.058722093675009
87 8 3 0.0 1.0679831101363306 8.92848349188351 4.540436637592488
88 8 3 0.0 0.7349919349086864 9.189145041051678 4.4873079984662185
89 8 1 0.0 1.0291951004428395 8.88655038707488 5.097813236182125
90 8 2 0.0 1.200120130322825 9.186307661348865 5.395176738709735
91 8 1 0.0 1.0673418440718774 9.072501723250376 5.818851621976665
92 8 1 0.0 1.0446404192961054 9.159238763142557 6.296062239913624
93 8 1 0.0 0.6817621851348639 9.53399035224289 4.858844926148207
94 8 1 0.0 0.4987354926119979 9.41581510610576 5.3034737554490485
95 8 1 0.0 0.5884332101306919 9.598032155539402 5.70289605990531
96 8 1 0.0 0.5012839227022494 9.624006441916615 6.186215456792505
97 9 5 8.861242189860825 0.6752612247818486 11.045482529004905 3.7750667881273294
98 9 6 -8.861242189860825 0.48716252250420294 10.970105211418543 4.173273776170587
99 9 3 0.0 0.5430560414393932 10.933780886286728 4.672308386092313
100 9 3 0.0 0.9686655493567713 10.939103519311907 4.694181534874605
101 9 1 0.0 0.450089390996257 10.908849304095174 5.224275038839593
102 9 2 0.0 0.4547939242149353 10.527481305611307 5.473335591827688
103 9 1 0.0 0.4119541956858618 10.635169593880077 5.9167882519693995
104 9 1 0.0 0.40068950952629323 10.511493010596752 6.386198362896902
105 9 1 0.0 1.159676771250017 10.647324023589581 5.065894895583893
106 9 1 0.0 1.1488397274086057 10.785793312294112 5.541150373603147
107 9 1 0.0 1.1246974442004518 10.530699987742066 5.908752681620925
108 9 1 0.0 1.1237332098435142 10.492693039597517 6.399080983276392
109 10 5 8.861242189860825 0.7524180464576484 12.170343904361845 3.7961650392402255
110 10 6 -8.861242189860825 0.6689809501822244 12.341820035849011 4.200226735552626
111 10 3 0.0 0.6207203443495876 12.264948185285405 4.6954445830405405
112 10 3 0.0 0.6228784531851692 11.838765653760456 4.699187667181388
113 10 1 0.0 0.5835474516161337 12.334456190490746 5.2501682808292935
114 10 2 0.0 0.19647206916930832 12.321884422821661 5.489979541858566
115 10 1 0.0 0.29408998968535416 12.344984416863191 5.93721483052312
116 10 1 0.0 0.15960981129476037 12.337103025597038 6.403714142355009
117 10 1 0.0 0.3213529915822762 11.634181015642675 5.055584784726266
118 10 1 0.0 0.44880425455093614 11.62372892528646 5.533921365175375
119 10 1 0.0 0.1853918485027618 11.634006576187435 5.896268139911104
120 10 1 0.0 0.1360060870488508 11.614322855657935 6.385186230158568
121 11 5 8.861242189860825 0.612728777584612 12.715376498465051 3.481412965221156
122 11 6 -8.861242189860825 0.6754555361948608 12.549990114232902 3.89171086284726
123 11 3 0.0 0.6583759016250704 12.623787849623342 4.389447002070819
124 11 3 0.0 0.5952269938381826 13.045262104937684 4.394125232739631
125 11 1 0.0 0.6447641914659961 12.55003692845952 4.944701079592327
126 11 2 0.0 0.9978459256623513 12.612680776792478 5.22559942276662
127 11 1 0.0 0.8566539644065806 12.567825406390767 5.659344851999409
128 11 1 0.0 0.937328160742658 12.58602568963849 6.137810176117169
129 11 1 0.0 0.8241996509407667 13.283754198443043 4.782048456042558
130 11 1 0.0 0.6455144529530814 13.267329319505519 5.243525192393219
131 11 1 0.0 0.8669057515325528 13.287658489656724 5.632574711971094
132 11 1 0.0 0.859749806555817 13.305124302337289 6.12401243854323
133 12 5 8.861242189860825 0.19797394386646067 14.277856999974414 3.613213396860945
134 12 6 -8.861242189860825 0.11872857757067312 14.364350050095737 4.044340746182337
135 12 3 0.0 0.29472672658632004 14.384051293824742 4.515632159740409
136 12 3 0.0 0.6692474744503154 14.189209161364357 4.457143091297414
137 12 1 0.0 0.3627190384462936 14.492808580660839 5.061049858131481
138 12 2 0.0 0.277319608322613 14.199425895637537 5.398878778471644
139 12 1 0.0 0.41323381283731664 14.382121449741515 5.796662557777989
140 12 1 0.0 0.48611134288046454 14.35363950938882 6.2758767972747265
141 12 1 0.0 0.8170785970069697 13.90365272312815 4.852610995593592
142 12 1 0.0 1.0026331419090055 14.102682348007392 5.266272299207424
143 12 1 0.0 0.9797490837422338 13.950772948887595 5.687207882486384
144 12 1 0.0 1.103643930366716 13.994761428725715 6.161109118906928
145 13 5 8.861242189860825 1.6746280824902042 0.6436095553143693 3.5743668651580895
146 13 6 -8.861242189860825 1.8726118594176557 0.49131217013967393 3.9448254966866654
147 13 3 0.0 1.8496371175108066 0.4180242940962915 4.442399744828923
148 13 3 0.0 1.5002795749371787 0.6461896073035346 4.529233583772057
149 13 1 0.0 1.9413177246139046 0.238378793282443 4.965136512187769
150 13 2 0.0 2.159857767625471 0.4738532092223301 5.288071321388331
151 13 1 0.0 2.133360176694555 0.24712966561521676 5.685534003921614
152 13 1 0.0 2.2157245398896865 0.21270324188312512 6.162817541949441
153 13 1 0.0 1.515487440815286 0.8829178888923195 4.980365299631598
154 13 1 0.0 1.4451458655197622 0.6414694866704763 5.4068787070062445
155 13 1 0.0 1.6140917416584335 0.7301051956120603 5.812326500150658
156 13 1 0.0 1.638336734491693 0.6286411720592031 6.2929350035153755
157 14 5 8.861242189860825 1.4399367391700837 2.0105455995283408 3.729465698632584
158 14 6 -8.861242189860825 1.3292597835734004 2.005135595139201 4.1623086383738865
159 14 3 0.0 1.4783777750322344 2.0389113816374294 4.641998230531855
160 14 3 0.0 1.9002973836203632 2.0227535212995287 4.583920819021122
161 14 1 0.0 1.4918870997370606 2.1002760359512824 5.198759799767006
162 14 2 0.0 1.5329522994498073 1.7597437537872889 5.49850345046184
163 14 1 0.0 1.5787836912127142 1.9333358934757852 5.920223172700327
164 14 1 0.0 1.653800036153415 1.8804003576374273 6.397023990322451
165 14 1 0.0 2.1502043677604883 1.7778380711667447 4.954534236354011
166 14 1 0.0 2.2344094392287266 1.984623330309566 5.396471242454579
167 14 1 0.0 2.273504747519038 1.7877785072367463 5.797108963380395
168 14 1 0.0 2.365124505839736 1.8219085851183612 6.279092634191496
169 15 5 8.861242189860825 1.8461209696489884 3.564967345575293 3.601356527034885
170 15 6 -8.861242189860825 1.6471120388196914 3.4808084934158163 3.9924375930364406
171 15 3 0.0 1.6754882205394324 3.4807221913021418 4.495104350260273
172 15 3 0.0 2.092309053305716 3.5573583633410863 4.540243122916213
173 15 1 0.0 1.5519887322713122 3.470098335939425 5.041516811433123
174 15 2 0.0 1.6019722152729854 3.108487377844841 5.313975998042916
175 15 1 0.0 1.513490829050793 3.2309932566386363 5.746694873885676
176 15 1 0.0 1.491772216013196 3.132223416459867 6.22160693223613
177 15 1 0.0 2.30329011775349 3.321228684112225 4.9396441101141395
178 15 1 0.0 2.239278667251295 3.4810172888181725 5.4038952176320425
179 15 1 0.0 2.232737464290295 3.2452958033509156 5.784919501480788
180 15 1 0.0 2.2059639192179863 3.23370796347752 6.275853509786203
181 16 5 8.861242189860825 1.6693316215695746 4.565715234211022 3.678661899144743
182 16 6 -8.861242189860825 1.6382888447861434 4.312570499608817 4.045521213438774
183 16 3 0.0 1.5831948890883478 4.289517053604337 4.545433484370242
184 16 3 0.0 1.632468167168413 4.702408358277808 4.63893820554479
185 16 1 0.0 1.4860951726594689 4.115596387697779 5.069126920141856
186 16 2 0.0 1.808008264108709 4.020567019137287 5.377081823690604
187 16 1 0.0 1.6104122995982852 3.933318667715828 5.781341432779733
188 16 1 0.0 1.6366677687162858 3.8343574666153857 6.255984428794668
189 16 1 0.0 1.8690230429883021 4.786551839841463 5.082506744531835
190 16 1 0.0 1.6397136522931939 4.731123965357498 5.5178272114181235
191 16 1 0.0 1.8117702671112572 4.6121505094644695 5.9140957428708925
192 16 1 0.0 1.7521736713636273 4.534603973556736 6.396073005616239
193 17 5 8.861242189860825 2.000286944072398 5.597285585448658 3.711794373608541
194 17 6 -8.861242189860825 1.9753375144936594 5.428537302384313 4.12475104210787
195 17 3 0.0 1.8989039539662544 5.509766785744048 4.615708031887202
196 17 3 0.0 1.905355378393639 5.935921656452396 4.616497705272446
197 17 1 0.0 1.793486381220022 5.445521533308779 5.162234564203839
198 17 2 0.0 2.107791290141259 5.452871301499133 5.491860484135346
199 17 1 0.0 1.900098344498644 5.436580075337358 5.9001257261507565
200 17 1 0.0 1.9127822338884926 5.446787132507924 6.385412834553344
201 17 1 0.0 2.111778558142971 6.138220054005984 5.036326495081273
202 17 1 0.0 1.8681299055870508 6.156410179232032 5.466981122680714
203 17 1 0.0 2.0313999665720064 6.144735900707562 5.884106414812968
204 17 1 0.0 1.956370499066787 6.168701455849433 6.369558299588501
205 18 5 8.861242189860825 1.7653983300648926 6.7314438711137825 3.4505580952903574
206 18 6 -8.861242189860825 1.671138726168668 6.886068433606104 3.859016219066735
207 18 3 0.0 1.7475641753971987 6.855476786628896 4.355707658292748
208 18 3 0.0 1.9671664550404748 6.490441741281107 4.368916470997135
209 18 1 0.0 1.7681525978922068 6.963426150449212 4.905120635332955
210 18 2 0.0 1.4849621751004112 6.7894849025723225 5.216637037278608
211 18 1 0.0 1.6262662982006035 6.911446493841346 5.6352547466597045
212 18 1 0.0 1.590078132807018 6.893995682690705 6.119149909400058
213 18 1 0.0 1.8725690065198541 6.207766453505138 4.78236222071175
214 18 1 0.0 2.0611089575524373 6.319396077925895 5.2263785139231365
215 18 1 0.0 1.8901910843054905 6.2411326786857755 5.633132532801424
216 18 1 0.0 1.9355280428438923 6.258413662104276 6.122533420685855
217 19 5 8.861242189860825 1.8197226575412555 7.718150509689224 3.7175638729960525
218 19 6 -8.861242189860825 1.775070189160469 7.598612875796977 4.145756094180044
219 19 3 0.0 1.8463218424802823 7.712616439821169 4.630942113397358
220 19 3 0.0 2.0961972392526693 8.054813905326448 4.584970394055442
221 19 1 0.0 1.820604318500393 7.725833018888779 5.190491484434732
222 19 2 0.0 2.133879866497562 7.550590137401551 5.47092544363058
223 19 1 0.0 2.0296992936034224 7.6614856439088435 5.903280467222769
224 19 1 0.0 2.1304987169327063 7.665759213350759 6.378243471580572
225 19 1 0.0 2.4508057225090143 8.10145313908484 4.948108093860879
226 19 1 0.0 2.3415598541865004 8.261491237138681 5.403752804404782
227 19 1 0.0 2.5383692003423697 8.159601376113873 5.793202991740159
228 19 1 0.0 2.5769177863241115 8.226258941287753 6.278937566156467
229 20 5 8.861242189860825 1.527552889546644 9.152767253969316 3.5902459635080612
230 20 6 -8.861242189860825 1.683268489157866 8.94983129993898 3.9565809437256867
231 20 3 0.0 1.667841550098003 8.901267955951798 4.457462861074472
232 20 3 0.0 1.425920474705067 9.239272203198986 4.551683561630311
233 20 1 0.0 1.724265054038459 8.713595782828627 4.982369625432233
234 20 2 0.0 2.0310758690640376 8.865460835891307 5.282867497965036
235 20 1 0.0 1.952634285695866 8.672019241649528 5.69092330195924
236 20 1 0.0 2.047972970894272 8.622502930775228 6.1644497665944495
237 20 1 0.0 1.5510990085972072 9.466552053481992 4.990392562963619
238 20 1 0.0 1.428365958437648 9.275363202964742 5.430327077019168
239 20 1 0.0 1.6429432527465213 9.309062998688884 5.8222554116222565
240 20 1 0.0 1.6608094324086737 9.217181912345428 6.305065899138961
241 21 5 8.861242189860825 1.7221882200609155 11.055153831086171 3.5219722542989804
242 21 6 -8.861242189860825 1.8233179536626005 11.186718968940752 3.9368156688718656
243 21 3 0.0 1.8681473977098026 11.067625184548879 4.423935854678828
244 21 3 0.0 1.6840751812048784 10.683269341025646 4.417753383477543
245 21 1 0.0 2.0012022941216676 11.067027594168739 4.968203808040767
246 21 2 0.0 1.7189986494023979 11.18263339328947 5.30656935603871
247 21 1 0.0 1.9222344596504328 11.09954012686195 5.708903776719682
248 21 1 0.0 1.9157274865909641 11.082324606018783 6.194114996490601
249 21 1 0.0 1.4200361967117996 10.574304377577729 4.839892501484364
250 21 1 0.0 1.6419321248417376 10.444266888355349 5.262989893696797
251 21 1 0.0 1.5065192742741649 10.511679365772508 5.684778737455331
252 21 1 0.0 1.573917513426864 10.445328692474012 6.167399050715604
253 22 5 8.861242189860825 2.0832106797094543 11.958035359430795 3.705594539697402
254 22 6 -8.861242189860825 1.9322879142615985 12.108743799312446 4.0982024256975995
255 22 3 0.0 1.9750408741662493 12.111718290756306 4.599842157751402
256 22 3 0.0 2.2543388704227785 11.79321398143803 4.646723417572579
257 22 1 0.0 1.934404441173278 12.242783152307837 5.1430753029205025
258 22 2 0.0 1.663813154262734 12.03267188576467 5.443289315043278
259 22 1 0.0 1.749050418530454 12.194281988844525 5.863645182041868
260 22 1 0.0 1.6799461791149808 12.189306355728911 6.3442369941004895
261 22 1 0.0 2.180372036016181 11.514300171672371 5.066875030294453
262 22 1 0.0 2.3118648201327328 11.675283004798935 5.516266986146681
263 22 1 0.0 2.1272175817677024 11.583190424712527 5.914024783036587
264 22 1 0.0 2.131517837348078 11.627306265638811 6.403823314721608
265 23 5 8.861242189860825 1.6827324131334798 13.078815681836591 3.6817757088356147
266 23 6 -8.861242189860825 1.5060547752980606 13.1308821444234 4.088845436147935
267 23 3 0.0 1.5772743605729906 13.24291210961432 4.574495661647272
268 23 3 0.0 2.003385821701209 13.241792942160048 4.583326768544491
269 23 1 0.0 1.5016978853170828 13.385993521081993 5.110916647171271
270 23 2 0.0 1.5063773274464765 13.095952599473591 5.462127707032771
271 23 1 0.0 1.4801895297155905 13.33183834456137 5.854242978441386
272 23 1 0.0 1.4814935006962717 13.35370336190213 6.339308812451835
273 23 1 0.0 2.200095876927116 13.068152596628689 5.020299957790341
274 23 1 0.0 2.207567011791103 13.34191310689616 5.432802466852779
275 23 1 0.0 2.1899282189938734 13.208481667603376 5.860203724368979
276 23 1 0.0 2.2040153802159064 13.318014306638288 6.339444221545756
277 24 5 8.861242189860825 2.209722133966558 14.421232198892843 3.737064074450628
278 24 6 -8.861242189860825 2.3616431008856815 14.382212903859497 4.155428964895552
279 24 3 0.0 2.2619088392683846 14.282590071440444 4.6387585132116325
280 24 3 0.0 1.8360647685652125 14.27914281588865 4.621578228995174
281 24 1 0.0 2.3058789872462917 14.154960579869856 5.18254974760077
282 24 2 0.0 2.2769260411670342 14.454342199836725 5.524642153968516
283 24 1 0.0 2.281326455840779 14.229480461931745 5.924016798549908
284 24 1 0.0 2.250543612585082 14.220756326041881 6.408521647505986
285 24 1 0.0 1.6113181021976983 14.462332791310443 5.0407700137483715
286 24 1 0.0 1.5812399536987363 14.199785567408231 5.459486164648936
287 24 1 0.0 1.5714022390294349 14.344941769636451 5.883301935066085
288 24 1 0.0 1.5290590011736287 14.248285757061693 6.3636476092430545
289 25 5 8.861242189860825 3.0531829697966213 0.4604172751505086 3.4862659734709363
290 25 6 -8.861242189860825 3.0738981359895923 0.3546090364841286 3.9198639043371353
291 25 3 0.0 2.933931282753821 0.4583283384460172 4.3922309971270375
292 25 3 0.0 2.7542608918908877 0.839496312629282 4.328358120302578
293 25 1 0.0 2.8271652052140066 0.42754734529513083 4.941398642548392
294 25 2 0.0 3.081832748997014 0.616597584830653 5.268353212833352
295 25 1 0.0 2.872569514868766 0.5648554826169475 5.672845394782714
296 25 1 0.0 2.843892208119331 0.6441008413674904 6.151036180810611
297 25 1 0.0 2.8206800817261954 1.1659797076847054 4.714089202168721
298 25 1 0.0 2.562505260422337 1.1319584243797034 5.135215393170741
299 25 1 0.0 2.683487486436988 1.2491421838301138 5.550448073049293
300 25 1 0.0 2.570097855407536 1.3019258472350896 6.0260781580019245
301 26 5 8.861242189860825 2.6851594409966997 1.6858258762143616 3.594330244909827
302 26 6 -8.861242189860825 2.5437595209288153 1.6816006880430745 4.018146098224974
303 26 3 0.0 2.6398644489200853 1.7833909796129888 4.501759232158363
304 26 3 0.0 3.0562154978985228 1.8695914575516475 4.472238054889371
305 26 1 0.0 2.5918368179559885 1.8829815286743694 5.051037519397042
306 26 2 0.0 2.690071219350135 1.5842451062092848 5.380584775842347
307 26 1 0.0 2.6569667134448838 1.7913667463577012 5.788122491187149
308 26 1 0.0 2.7029515741579226 1.7906574005882645 6.271499706270426
309 26 1 0.0 3.326930859704223 1.7202087623194466 4.877440950721189
310 26 1 0.0 3.321099080774818 1.9703413786552064 5.304709741320753
311 26 1 0.0 3.3739108733979686 1.8165872995989654 5.72227112442869
312 26 1 0.0 3.414193678367273 1.9044729117392432 6.2044751435554755
313 27 5 8.861242189860825 2.844018884086378 3.511337235224513 3.5427144943834996
314 27 6 -8.861242189860825 3.0628814336994283 3.5094571354490727 3.932236402282456
315 27 3 0.0 3.0810296578728114 3.3563033446735493 4.41150004818668
316 27 3 0.0 2.6866749866099027 3.1988443713854577 4.448123582612361
317 27 1 0.0 3.251036210025771 3.2264236666154833 4.929342310929711
318 27 2 0.0 3.171711459706443 3.4771749817128743 5.3012646199121605
319 27 1 0.0 3.3171267372217743 3.2496853985306386 5.671649768326854
320 27 1 0.0 3.366984750170868 3.206120110726166 6.152674598134176
321 27 1 0.0 2.479684306540643 3.2663677522240495 4.908978044397761
322 27 1 0.0 2.6095934921797364 2.990305888970936 5.2989426658247245
323 27 1 0.0 2.6150338501506436 3.1005082241511777 5.733238370104063
324 27 1 0.0 2.684623607102353 2.971167276552612 6.202594829803084
325 28 5 8.861242189860825 3.5912273796276786 4.11746489205288 3.405324247482093
326 28 6 -8.861242189860825 3.580989803738512 3.9492950059302734 3.8191427446193718
327 28 3 0.0 3.4167499600892755 3.9905749661925927 4.293273868459376
328 28 3 0.0 3.2571527260886297 4.385409413655534 4.27640080455198
329 28 1 0.0 3.275388029089579 3.8861996555659024 4.825302219795887
330 28 2 0.0 3.5171190868161033 4.0132188086351155 5.189893871427033
331 28 1 0.0 3.2815344572598244 3.9140909312425443 5.570361764682084
332 28 1 0.0 3.226918205764121 3.9248222950966287 6.0527211178103
333 28 1 0.0 3.3132008730804863 4.649108617408791 4.708966081361846
334 28 1 0.0 3.0285481643429555 4.567519943370403 5.105797378638047
335 28 1 0.0 3.1285983047447568 4.617406633764609 5.539719259230175
336 28 1 0.0 2.988569088787078 4.606558179582579 6.011038080177982
337 29 5 8.861242189860825 3.2347379893161325 5.673588942395426 3.4197321369106772
338 29 6 -8.861242189860825 3.319136964829626 5.889383254199399 3.801754773748935
339 29 3 0.0 3.338746753242017 5.876242331100269 4.304668142325963
340 29 3 0.0 3.1472360189638757 5.50130344993783 4.370960618057008
341 29 1 0.0 3.44626083183599 5.990126620358016 4.842629720131083
342 29 2 0.0 3.1510570975580876 6.1780166566796755 5.134257790581371
343 29 1 0.0 3.333563177420117 6.1803640293759035 5.554696005081769
344 29 1 0.0 3.3041037345284088 6.266886216234036 6.031576173524196
345 29 1 0.0 2.8616162851037243 5.48742372625159 4.792884905628806
346 29 1 0.0 3.0608180005955834 5.448131353797152 5.244475141166367
347 29 1 0.0 2.90732891874298 5.605172393048957 5.635072279753267
348 29 1 0.0 2.950780905147595 5.642371827826621 6.1235345896495454
349 30 5 8.861242189860825 3.1684630399148888 6.4957622208892385 3.4114958461024507
350 30 6 -8.861242189860825 3.264636662055205 6.396675826559988 3.8364242965441377
351 30 3 0.0 3.1247067750361426 6.407346112671194 4.319937332219606
352 30 3 0.0 2.785867280553701 6.663845128750055 4.287591234787226
353 30 1 0.0 3.0812552474691706 6.311640497421885 4.870286282970014
354 30 2 0.0 3.24157005108579 6.585736184668071 5.196883220998431
355 30 1 0.0 3.1073326824895933 6.428982458484044 5.606139705073215
356 30 1 0.0 3.0775690470230583 6.469340246997191 6.089103490007474
357 30 1 0.0 2.7202201395068912 6.970392948987535 4.689474638678142
358 30 1 0.0 2.535646679202465 6.806095436038745 5.118540973655568
359 30 1 0.0 2.616653539612788 6.951562963427424 5.5345505864909
360 30 1 0.0 2.5239217073178732 6.929329098131369 6.0170169208321855
361 31 5 8.861242189860825 2.720388128962596 7.9960899739699745 3.493562476386549
362 31 6 -8.861242189860825 2.5892588461336374 7.961963725070751 3.91932318083491
363 31 3 0.0 2.6436293581920287 8.112653763555818 4.396623341818381
364 31 3 0.0 3.00365532190652 8.337289431170163 4.356995818850694
365 31 1 0.0 2.5636966262548957 8.213960721474967 4.941856527045088
366 31 2 0.0 2.7600026590141122 7.9835116445293695 5.282226922926385
367 31 1 0.0 2.6565308624952055 8.184269644431321 5.681065341785426
368 31 1 0.0 2.699740222040786 8.221514992779106 6.163262788815162
369 31 1 0.0 3.3093910472735026 8.310251129444953 4.763918391359348
370 31 1 0.0 3.2164457444594374 8.561678699618854 5.180216724844024
371 31 1 0.0 3.3195262186260157 8.455071597889363 5.603059783952185
372 31 1 0.0 3.326447698028958 8.573203660027115 6.080411028087412
373 32 5 8.861242189860825 3.202730505161215 8.864076297368257 3.461749600644878
374 32 6 -8.861242189860825 3.4265762520345358 8.969077643424782 3.833904764608212
375 32 3 0.0 3.450593789917217 8.95469137828591 4.336592816191276
376 32 3 0.0 3.056447407909219 8.81567479758564 4.420098732928095
377 32 1 0.0 3.6269962555735353 8.972546480054657 4.868095340250594
378 32 2 0.0 3.5529279016241126 9.316995316227478 5.15682310157178
379 32 1 0.0 3.702663189731518 9.200321888341735 5.574014815629292
380 32 1 0.0 3.7586161764954356 9.291545488589891 6.047635086181391
381 32 1 0.0 2.855522698541292 9.009418220946124 4.846577490444684
382 32 1 0.0 2.989913616894097 8.851587891876493 5.296230271055379
383 32 1 0.0 3.001140875852397 9.07783447256931 5.6828480982576535
384 32 1 0.0 3.076513004030561 9.08330492539627 6.168807374019785
385 33 5 8.861242189860825 2.702463301612854 10.53270308962621 3.6910694202620107
386 33 6 -8.861242189860825 2.6451949436134723 10.29948682491204 4.067848103544861
387 33 3 0.0 2.6588960130665624 10.290335725566766 4.571045502218169
388 33 3 0.0 2.851600901661966 10.663962117448037 4.641176547347004
389 33 1 0.0 2.588154751290092 10.15184181200912 5.109326727434122
390 33 2 0.0 2.903438742783304 9.954391983154903 5.372203907403551
391 33 1 0.0 2.7492499795268737 9.931705433108508 5.803241512827843
392 33 1 0.0 2.810921795682597 9.824642425272923 6.272818707858793
393 33 1 0.0 3.164472186540361 10.662258226491803 5.043544587078132
394 33 1 0.0 2.995383355996138 10.679629080386498 5.508588859853342
395 33 1 0.0 3.17560617785946 10.507188105890192 5.8808397909789765
396 33 1 0.0 3.1649323171473123 10.448135840223438 6.368964979712987
397 34 5 8.861242189860825 2.9729942753519465 12.021403489110233 3.620148309529504
398 34 6 -8.861242189860825 3.1008414311958474 11.830698584602617 4.0034476850454315
399 34 3 0.0 3.0542034700246457 11.804361317060957 4.5040576458644335
400 34 3 0.0 2.816631400675285 12.152170575844675 4.569161022574317
401 34 1 0.0 3.0739389119959215 11.63831299611569 5.03881930779588
402 34 2 0.0 3.366396222546222 11.795264125869858 5.350796720968224
403 34 1 0.0 3.258370879235131 11.621795836078709 5.761066813952001
404 34 1 0.0 3.323863503776643 11.590507492017469 6.241171384128595
405 34 1 0.0 2.9217115551289137 12.395057015629945 5.004770620782802
406 34 1 0.0 2.7676517525870477 12.226348068760267 5.444044821377093
407 34 1 0.0 2.9593182553579855 12.271598170717706 5.846541145481942
408 34 1 0.0 2.9457688814892196 12.200367840265942 6.332966839448646
409 35 5 8.861242189860825 2.9852727510358115 12.689605336857964 3.656174121315876
410 35 6 -8.861242189860825 2.7440527143697677 12.745729283225266 4.028054026240202
411 35 3 0.0 2.7350400950348175 12.858530978976072 4.518639017942389
412 35 3 0.0 3.153664188151403 12.851304867352498 4.5983376394032796
413 35 1 0.0 2.5733023736246987 13.004685176032337 5.034789604289172
414 35 2 0.0 2.5151166265102867 12.715918170423157 5.3822415826392405
415 35 1 0.0 2.4274841563524405 12.953616831481169 5.764213005998011
416 35 1 0.0 2.348300648900528 12.977268826757724 6.2426889175285
417 35 1 0.0 3.272246597194021 12.676478205627566 5.062196706533247
418 35 1 0.0 3.2149650393698352 12.951638431175894 5.46982966426642
419 35 1 0.0 3.1244073064310314 12.820069167317046 5.888489116258301
420 35 1 0.0 3.060097296190573 12.931173160808985 6.363238972996044
421 36 5 8.861242189860825 2.9387445122235536 14.285004596776222 3.6531985091799877
422 36 6 -8.861242189860825 2.7313447215813094 14.29397588772013 4.048845460276399