Lipid soup setup

4608 atoms
1408 bonds
1024 angles
0 dihedrals
0 impropers

6 atom types
2 bond types
3 angle types
0 dihedral types
0 improper types

0 10.373608390765556 xlo xhi
0 10.373608390765556 ylo yhi
0 14.273534117647056 zlo zhi

Masses

1 1
2 1
3 1
4 1
5 1
6 1

Atoms

1 1 5 8.861242189860825 0.5408848083618862 0.66550766871205 3.9305476447561647
2 1 6 -8.861242189860825 0.677021636326583 0.4804961261382251 4.313782768821923
3 1 3 0.0 0.6321014463879296 0.45248614150250577 4.814459012767601
4 1 3 0.0 0.38029672788416824 0.7901106148967143 4.879684138249815
5 1 1 0.0 0.6593667112118993 0.2876738187106427 5.3492721308006725
6 1 2 0.0 0.9453792850435211 0.4568491954150282 5.660834871644747
7 1 1 0.0 0.8451610714676533 0.2792293394551675 6.07130992325437
8 1 1 0.0 0.9124566523147202 0.2509417511061481 6.551351337917453
9 1 1 0.0 0.475651958683785 1.0373887145403975 5.315060188278614
10 1 1 0.0 0.32927428903871886 0.8626174690225861 5.754591238820327
11 1 1 0.0 0.5193500005133579 0.9160282645578548 6.1568416853797
12 1 1 0.0 0.50934667168401 0.8445380806046574 6.643315105280688
13 2 5 8.861242189860825 0.6234443339941919 2.122671605818347 4.265711542471049
14 2 6 -8.861242189860825 0.4728996956395155 1.9643844873866323 4.655471939552099
15 2 3 0.0 0.45588744417196236 2.008494003619408 5.156714413642916
16 2 3 0.0 0.7562367967455261 2.3062322070340855 5.209558021824863
17 2 1 0.0 0.3149938535878805 1.9619412820102131 5.697004528186325
18 2 2 0.0 0.5337152681776104 1.705170495668112 6.00314918033014
19 2 1 0.0 0.35775137361357456 1.7820775916123344 6.419327360873938
20 2 1 0.0 0.35574158392612326 1.7149263310513494 6.90021748512101
21 2 1 0.0 1.0292927663859321 2.250183193763307 5.6362784561821
22 2 1 0.0 0.8505648052389215 2.373395086389797 6.081288681053955
23 2 1 0.0 0.9442028068522557 2.195773058951995 6.481874815302586
24 2 1 0.0 0.8886670786822725 2.1990335568960826 6.970518298129564
25 3 5 8.861242189860825 0.4029216147114083 3.062485105416058 4.019048101693444
26 3 6 -8.861242189860825 0.5412823679774299 3.2232754276240208 4.4122839614156355
27 3 3 0.0 0.6249460236959593 3.1412990909280594 4.901936243028508
28 3 3 0.0 0.433791970144091 2.7624414426770354 4.941650578753012
29 3 1 0.0 0.8035777536990572 3.1796153288403852 5.431609858171431
30 3 2 0.0 0.5532731004552677 3.3283243454240026 5.781935493696968
31 3 1 0.0 0.7882452684386624 3.271601269975485 6.1713617955081155
32 3 1 0.0 0.822526753292659 3.2923216852253367 6.655266834576692
33 3 1 0.0 0.20444021561486964 2.6933804851715313 5.391561392565826
34 3 1 0.0 0.45887460964963644 2.5910087374540534 5.803801758399036
35 3 1 0.0 0.3609623667060396 2.6944291361892185 6.228659763780516
36 3 1 0.0 0.4677238627167897 2.664094298134664 6.7077725707782445
37 4 5 8.861242189860825 0.8124075732600022 4.686263907781409 3.9506305781788154
38 4 6 -8.861242189860825 0.9904105354482108 4.675616230487305 4.360305131393922
39 4 3 0.0 0.9593527036650475 4.512638125857748 4.835649882549602
40 4 3 0.0 0.5630669862485187 4.355926437297354 4.82862883349246
41 4 1 0.0 1.0754654507137213 4.371578277445412 5.365321022757303
42 4 2 0.0 0.9590352400914992 4.614972152722943 5.732333651268888
43 4 1 0.0 1.0655630519702672 4.379426723286819 6.110820701939763
44 4 1 0.0 1.0660459469688663 4.325860010362964 6.59341682368841
45 4 1 0.0 0.3102748738796236 4.414788351201629 5.267289073950285
46 4 1 0.0 0.39930317830152057 4.130338619626383 5.662663916396539
47 4 1 0.0 0.36061114289661145 4.2316255493835255 6.097440635168501
48 4 1 0.0 0.38177502814502356 4.09246689176 6.568666970626423
49 5 5 8.861242189860825 0.4475000818044968 5.603361075564125 4.292939661061124
50 5 6 -8.861242189860825 0.4139048479992966 5.77769265470821 4.702953719247226
51 5 3 0.0 0.5830988678662823 5.79076324125157 5.176959655247645
52 5 3 0.0 0.8391231788662505 5.450150023837022 5.1677723493777385
53 5 1 0.0 0.6926104294602012 5.939923015809586 5.705817053003684
54 5 2 0.0 0.4917068020052864 5.763057825648149 6.0743971378424435
55 5 1 0.0 0.6936508179328008 5.928053470576417 6.4513285946661405
56 5 1 0.0 0.7490488204934957 5.942552445699024 6.93350022767721
57 5 1 0.0 0.852849745934759 5.190653888022879 5.606252360777301
58 5 1 0.0 1.106720528232795 5.351724516599862 5.9996539791345045
59 5 1 0.0 1.0227947949329326 5.287442662485207 6.435097690136488
60 5 1 0.0 1.1551549444476041 5.344560907396219 6.905295093551513
61 6 5 8.861242189860825 0.9668501561322759 6.8396108766723565 4.206382084509778
62 6 6 -8.861242189860825 0.94905517264096 7.079596933226119 4.582841509088114
63 6 3 0.0 0.8853586900320709 7.087180141487299 5.082205441516852
64 6 3 0.0 0.7494110859255472 6.687401433713058 5.14004532427693
65 6 1 0.0 0.8803875352833608 7.236119856747351 5.622320074228228
66 6 2 0.0 0.5134664747720343 7.380347847372765 5.850491203051597
67 6 1 0.0 0.6194862230509547 7.428346687220772 6.2938174891046375
68 6 1 0.0 0.4961753851450993 7.524736756749011 6.753460866517147
69 6 1 0.0 0.4028403537232575 6.6390676722642095 5.510644782759931
70 6 1 0.0 0.5266451848843692 6.650000400894948 5.989927365425651
71 6 1 0.0 0.28580550785341086 6.791573022679358 6.340270559534269
72 6 1 0.0 0.23948071417610306 6.852321049089057 6.826100768596627
73 7 5 8.861242189860825 0.30615770659505226 8.590919020976953 3.960735796935241
74 7 6 -8.861242189860825 0.15889940990532017 8.718865533569284 4.362701406288868
75 7 3 0.0 0.2468372639362768 8.760550065631406 4.856673488060866
76 7 3 0.0 0.6032929773046385 8.528357291199582 4.882674607235818
77 7 1 0.0 0.22494400257497668 8.906451111836619 5.3971965101916695
78 7 2 0.0 0.049033414481981674 8.650357472102563 5.730312638050516
79 7 1 0.0 0.12825866081082044 8.851521341763778 6.134464502384361
80 7 1 0.0 0.10890502204482044 8.855402258847743 6.619623257635654
81 7 1 0.0 0.6456613196467014 8.26348111085859 5.316076171836214
82 7 1 0.0 0.7722173862167181 8.47762706746036 5.744193008816852
83 7 1 0.0 0.6570080131390179 8.362993150662874 6.161772673556679
84 7 1 0.0 0.6960717799282401 8.43373482785958 6.646888060337109
85 8 5 8.861242189860825 1.1291283380149952 9.330269318649018 4.175774270249946
86 8 6 -8.861242189860825 1.228253056781213 9.269579987439121 4.607193744008777
87 8 3 0.0 1.0947227937165254 9.329578745586431 5.088908287926256
88 8 3 0.0 0.7617316184888812 9.590240294754599 5.035779648799987
89 8 1 0.0 1.0559347840230342 9.287645640777802 5.646284886515893
90 8 2 0.0 1.2268598139030198 9.587402915051786 5.943648389043504
91 8 1 0.0 1.0940815276520721 9.473596976953297 6.367323272310434
92 8 1 0.0 1.0713801028763001 9.560334016845479 6.8445338902473924
93 8 1 0.0 0.7085018687150586 9.935085605945812 5.407316576481976
94 8 1 0.0 0.5254751761921926 9.81691035980868 5.851945405782817
95 8 1 0.0 0.6151728937108867 9.999127409242323 6.251367710239078
96 8 1 0.0 0.5280236062824442 10.025101695619536 6.734687107126273
97 9 5 8.861242189860825 1.9987019572077376 1.1264487591026602 4.323538438461098
98 9 6 -8.861242189860825 1.810603254930092 1.0510714415162974 4.721745426504356
99 9 3 0.0 1.8664967738652822 1.0147471163844826 5.220780036426081
100 9 3 0.0 2.2921062817826603 1.0200697494096613 5.242653185208374
101 9 1 0.0 1.773530123422146 0.9898155341929282 5.772746689173362
102 9 2 0.0 1.7782346566408245 0.6084475357090622 6.021807242161456
103 9 1 0.0 1.735394928111751 0.7161358239778323 6.465259902303168
104 9 1 0.0 1.7241302419521825 0.5924592406945058 6.9346700132306704
105 9 1 0.0 2.483117503675906 0.7282902536873355 5.614366545917662
106 9 1 0.0 2.472280459834495 0.866759542391867 6.089622023936915
107 9 1 0.0 2.448138176626341 0.6116662178398211 6.457224331954693
108 9 1 0.0 2.447173942269403 0.5736592696952723 6.947552633610161
109 10 5 8.861242189860825 2.0758587788835374 2.3047895016199895 4.344636689573994
110 10 6 -8.861242189860825 1.9924216826081136 2.4762656331071566 4.748698385886394
111 10 3 0.0 1.9441610767754767 2.3993937825435507 5.243916233374309
112 10 3 0.0 1.9463191856110584 1.9732112510186015 5.247659317515156
113 10 1 0.0 1.906988184042023 2.468901787748891 5.798639931163062
114 10 2 0.0 1.5199128015951975 2.456330020079806 6.038451192192334
115 10 1 0.0 1.6175307221112434 2.479430014121336 6.485686480856888
116 10 1 0.0 1.4830505437206496 2.4715486228551833 6.952185792688777
117 10 1 0.0 1.6447937240081654 1.7686266129008201 5.604056435060034
118 10 1 0.0 1.7722449869768253 1.7581745225446055 6.082393015509143
119 10 1 0.0 1.508832580928651 1.7684521734455805 6.444739790244872
120 10 1 0.0 1.45944681947474 1.7487684529160807 6.933657880492336
121 11 5 8.861242189860825 1.9361695100105012 2.903301462883585 4.029884615554924
122 11 6 -8.861242189860825 1.99889626862075 2.7379150786514357 4.440182513181028
123 11 3 0.0 1.9818166340509595 2.811712814041877 4.937918652404587
124 11 3 0.0 1.918667726264072 3.2331870693562177 4.942596883073399
125 11 1 0.0 1.9682049238918853 2.7379618928780536 5.493172729926095
126 11 2 0.0 2.3212866580882405 2.8006057412110126 5.774071073100388
127 11 1 0.0 2.18009469683247 2.7557503708093014 6.207816502333177
128 11 1 0.0 2.2607688931685472 2.7739506540570247 6.686281826450937
129 11 1 0.0 2.1476403833666557 3.471679162861577 5.330520106376326
130 11 1 0.0 1.9689551853789706 3.4552542839240536 5.791996842726987
131 11 1 0.0 2.190346483958442 3.475583454075259 6.181046362304862
132 11 1 0.0 2.183190538981706 3.4930492667558224 6.672484088876998
133 12 5 8.861242189860825 1.52141467629235 4.519261331553335 4.161685047194713
134 12 6 -8.861242189860825 1.4421693099965625 4.605754381674659 4.592812396516106
135 12 3 0.0 1.6181674590122093 4.625455625403663 5.064103810074178
136 12 3 0.0 1.9926882068762048 4.430613492943278 5.005614741631183
137 12 1 0.0 1.686159770872183 4.7342129122397605 5.609521508465249
138 12 2 0.0 1.6007603407485023 4.440830227216459 5.947350428805413
139 12 1 0.0 1.736674545263206 4.623525781320438 6.345134208111757
140 12 1 0.0 1.8095520753063539 4.595043840967741 6.824348447608495
141 12 1 0.0 2.140519329432859 4.145057054707072 5.40108264592736
142 12 1 0.0 2.3260738743348948 4.3440866795863124 5.814743949541192
143 12 1 0.0 2.303189816168123 4.192177280466517 6.235679532820153
144 12 1 0.0 2.4270846627926055 4.236165760304636 6.709580769240696
145 13 5 8.861242189860825 1.7548471332307884 5.8571534342773415 4.122838515491858
146 13 6 -8.861242189860825 1.95283091015824 5.704856049102647 4.493297147020433
147 13 3 0.0 1.9298561682513908 5.631568173059264 4.990871395162691
148 13 3 0.0 1.580498625677763 5.859733486266507 5.077705234105825
149 13 1 0.0 2.021536775354489 5.4519226722454155 5.513608162521537
150 13 2 0.0 2.240076818366055 5.687397088185302 5.836542971722099
151 13 1 0.0 2.2135792274351394 5.4606735445781895 6.234005654255382
152 13 1 0.0 2.2959435906302708 5.426247120846098 6.71128919228321
153 13 1 0.0 1.5957064915558703 6.096461767855292 5.528836949965366
154 13 1 0.0 1.5253649162603464 5.855013365633448 5.955350357340013
155 13 1 0.0 1.6943107923990177 5.943649074575033 6.360798150484427
156 13 1 0.0 1.7185557852322773 5.842185051022176 6.841406653849144
157 14 5 8.861242189860825 1.520155789910668 7.277568845651703 4.277937348966352
158 14 6 -8.861242189860825 1.4094788343139846 7.272158841262563 4.710780288707655
159 14 3 0.0 1.5585968257728187 7.3059346277607915 5.190469880865623
160 14 3 0.0 1.9805164343609474 7.28977676742289 5.13239246935489
161 14 1 0.0 1.5721061504776448 7.367299282074645 5.747231450100775
162 14 2 0.0 1.6131713501903915 7.026766999910651 6.046975100795608
163 14 1 0.0 1.6590027419532984 7.200359139599147 6.468694823034095
164 14 1 0.0 1.7340190868939993 7.147423603760789 6.945495640656219
165 14 1 0.0 2.2304234185010725 7.044861317290106 5.503005886687779
166 14 1 0.0 2.314628489969311 7.251646576432928 5.944942892788347
167 14 1 0.0 2.3537237982596224 7.054801753360108 6.345580613714163
168 14 1 0.0 2.44534355658032 7.088931831241723 6.827564284525264
169 15 5 8.861242189860825 1.9263400203895726 8.885469958859046 4.149828177368653
170 15 6 -8.861242189860825 1.7273310895602756 8.801311106699568 4.5409092433702085
171 15 3 0.0 1.7557072712800166 8.801224804585894 5.043576000594041
172 15 3 0.0 2.1725281040463003 8.877860976624838 5.088714773249981
173 15 1 0.0 1.6322077830118964 8.790600949223178 5.589988461766891
174 15 2 0.0 1.6821912660135696 8.428989991128594 5.862447648376684
175 15 1 0.0 1.5937098797913771 8.55149586992239 6.295166524219444
176 15 1 0.0 1.5719912667537803 8.45272602974362 6.770078582569898
177 15 1 0.0 2.383509168494075 8.641731297395978 5.488115760447908
178 15 1 0.0 2.3194977179918794 8.801519902101925 5.952366867965811
179 15 1 0.0 2.312956515030879 8.565798416634669 6.333391151814556
180 15 1 0.0 2.2861829699585705 8.554210576761273 6.8243251601199715
181 16 5 8.861242189860825 1.7495506723101588 9.939697214655164 4.227133549478511
182 16 6 -8.861242189860825 1.7185078955267277 9.686552480052958 4.5939928637725425
183 16 3 0.0 1.663413939828932 9.663499034048478 5.09390513470401
184 16 3 0.0 1.7126872179089971 10.076390338721948 5.187409855878558
185 16 1 0.0 1.566314223400053 9.48957836814192 5.617598570475624
186 16 2 0.0 1.8882273148492932 9.394548999581428 5.9255534740243725
187 16 1 0.0 1.6906313503388695 9.30730064815997 6.3298130831135015
188 16 1 0.0 1.71688681945687 9.208339447059528 6.804456079128436
189 16 1 0.0 1.9492420937288863 10.160533820285606 5.630978394865603
190 16 1 0.0 1.719932703033778 10.10510594580164 6.066298861751892
191 16 1 0.0 1.8919893178518414 9.986132489908611 6.462567393204661
192 16 1 0.0 1.8323927221042116 9.908585954000879 6.944544655950008
193 17 5 8.861242189860825 3.377207043658677 0.6511385422876316 4.260266023942309
194 17 6 -8.861242189860825 3.3522576140799383 0.4823902592232863 4.673222692441638
195 17 3 0.0 3.275824053552533 0.5636197425830224 5.16417968222097
196 17 3 0.0 3.2822754779799177 0.9897746132913696 5.164969355606214
197 17 1 0.0 3.170406480806301 0.49937449014775265 5.710706214537607
198 17 2 0.0 3.484711389727538 0.5067242583381069 6.040332134469114
199 17 1 0.0 3.2770184440849226 0.49043303217633216 6.448597376484525
200 17 1 0.0 3.2897023334747715 0.5006400893468979 6.933884484887113
201 17 1 0.0 3.4886986577292496 1.1920730108449578 5.584798145415041
202 17 1 0.0 3.2450500051733293 1.2102631360710059 6.0154527730144824
203 17 1 0.0 3.408320066158285 1.1985888575465355 6.432578065146736
204 17 1 0.0 3.3332905986530657 1.222554412688407 6.9180299499222695
205 18 5 8.861242189860825 3.1423184296511715 1.8387761951131476 3.9990297456241257
206 18 6 -8.861242189860825 3.048058825754947 1.9934007576054684 4.407487869400503
207 18 3 0.0 3.124484274983477 1.9628091106282608 4.904179308626516
208 18 3 0.0 3.3440865546267537 1.5977740652804715 4.917388121330903
209 18 1 0.0 3.1450726974784855 2.0707584744485774 5.453592285666724
210 18 2 0.0 2.86188227468669 1.8968172265716874 5.7651086876123765
211 18 1 0.0 3.0031863977868825 2.018778817840711 6.183726396993473
212 18 1 0.0 2.966998232393297 2.0013280066900703 6.667621559733826
213 18 1 0.0 3.249489106106133 1.315098777504502 5.3308338710455185
214 18 1 0.0 3.4380290571387158 1.42672840192526 5.774850164256905
215 18 1 0.0 3.2671111838917692 1.3484650026851404 6.181604183135192
216 18 1 0.0 3.312448142430171 1.365745986103641 6.671005071019623
217 19 5 8.861242189860825 3.196642757127534 2.8789622008489775 4.266035523329821
218 19 6 -8.861242189860825 3.1519902887467475 2.759424566956731 4.694227744513812
219 19 3 0.0 3.2232419420665606 2.8734281309809226 5.179413763731127
220 19 3 0.0 3.473117338838948 3.2156255964862006 5.13344204438921
221 19 1 0.0 3.1975244180866715 2.8866447100485324 5.7389631347685
222 19 2 0.0 3.5107999660838405 2.711401828561305 6.019397093964348
223 19 1 0.0 3.406619393189701 2.822297335068597 6.451752117556537
224 19 1 0.0 3.507418816518985 2.8265709045105125 6.926715121914341
225 19 1 0.0 3.8277258220952928 3.262264830244595 5.496579744194647
226 19 1 0.0 3.718479953772779 3.4223029282984347 5.95222445473855
227 19 1 0.0 3.9152892999286486 3.320413067273627 6.341674642073928
228 19 1 0.0 3.9538378859103904 3.387070632447506 6.827409216490235
229 20 5 8.861242189860825 2.9044729891329224 4.367058312289459 4.13871761384183
230 20 6 -8.861242189860825 3.0601885887441447 4.164122358259124 4.505052594059455
231 20 3 0.0 3.0447616496842818 4.115559014271942 5.00593451140824
232 20 3 0.0 2.802840574291346 4.453563261519131 5.100155211964079
233 20 1 0.0 3.1011851536247375 3.9278868411487693 5.530841275766002
234 20 2 0.0 3.407995968650316 4.079751894211451 5.831339148298804
235 20 1 0.0 3.3295543852821443 3.8863102999696717 6.239394952293008
236 20 1 0.0 3.424893070480551 3.8367939890953724 6.712921416928218
237 20 1 0.0 2.9280191081834857 4.680843111802135 5.538864213297387
238 20 1 0.0 2.8052860580239267 4.489654261284886 5.978798727352936
239 20 1 0.0 3.0198633523328 4.523354057009026 6.370727061956025
240 20 1 0.0 3.037729531994952 4.43147297066557 6.85353754947273
241 21 5 8.861242189860825 3.099108319647194 6.322924256566702 4.070443904632748
242 21 6 -8.861242189860825 3.2002380532488788 6.454489394421283 4.485287319205634
243 21 3 0.0 3.245067497296081 6.33539561002941 4.972407505012597
244 21 3 0.0 3.0609952807911567 5.951039766506178 4.966225033811312
245 21 1 0.0 3.378122393707946 6.334798019649271 5.516675458374535
246 21 2 0.0 3.095918748988676 6.45040381877 5.8550410063724785
247 21 1 0.0 3.299154559236711 6.367310552342481 6.25737542705345
248 21 1 0.0 3.2926475861772424 6.350095031499315 6.742586646824369
249 21 1 0.0 2.796956296298078 5.84207480305826 5.388364151818132
250 21 1 0.0 3.018852224428016 5.7120373138358795 5.811461544030565
251 21 1 0.0 2.883439373860443 5.7794497912530405 6.2332503877890995
252 21 1 0.0 2.950837613013142 5.713099117954544 6.715870701049372
253 22 5 8.861242189860825 3.4601307792957328 7.2792851520717194 4.25406619003117
254 22 6 -8.861242189860825 3.309208013847877 7.429993591953369 4.646674076031368
255 22 3 0.0 3.351960973752528 7.43296808339723 5.14831380808517
256 22 3 0.0 3.631258970009057 7.114463774078953 5.195195067906347
257 22 1 0.0 3.311324540759556 7.564032944948759 5.691546953254271
258 22 2 0.0 3.0407332538490124 7.353921678405594 5.991760965377046
259 22 1 0.0 3.1259705181167323 7.515531781485449 6.412116832375636
260 22 1 0.0 3.0568662787012593 7.510556148369835 6.892708644434258
261 22 1 0.0 3.5572921356024594 6.8355499643132935 5.615346680628221
262 22 1 0.0 3.6887849197190112 6.996532797439858 6.064738636480449
263 22 1 0.0 3.5041376813539804 6.90444021735345 6.462496433370355
264 22 1 0.0 3.5084379369343566 6.948556058279734 6.952294965055376
265 23 5 8.861242189860825 3.059652512719758 8.453544841637903 4.2302473591693825
266 23 6 -8.861242189860825 2.882974874884339 8.505611304224711 4.637317086481703
267 23 3 0.0 2.954194460159269 8.617641269415632 5.12296731198104
268 23 3 0.0 3.3803059212874875 8.61652210196136 5.131798418878259
269 23 1 0.0 2.8786179849033613 8.760722680883305 5.659388297505039
270 23 2 0.0 2.883297427032755 8.470681759274903 6.010599357366539
271 23 1 0.0 2.8571096293018687 8.706567504362683 6.402714628775154
272 23 1 0.0 2.8584136002825504 8.728432521703443 6.887780462785603
273 23 1 0.0 3.5770159765133944 8.442881756430001 5.568771608124109
274 23 1 0.0 3.5844871113773813 8.716642266697471 5.981274117186548
275 23 1 0.0 3.566848318580152 8.583210827404688 6.408675374702748
276 23 1 0.0 3.580935479802185 8.6927434664396 6.887915871879525
277 24 5 8.861242189860825 3.586642233552836 9.849440725854544 4.285535724784396
278 24 6 -8.861242189860825 3.7385632004719596 9.810421430821197 4.70390061522932
279 24 3 0.0 3.6388289388546626 9.710798598402144 5.187230163545401
280 24 3 0.0 3.2129848681514908 9.70735134285035 5.170049879328943
281 24 1 0.0 3.6827990868325697 9.583169106831557 5.731021397934538
282 24 2 0.0 3.6538461407533123 9.882550726798426 6.0731138043022845
283 24 1 0.0 3.658246555427057 9.657688988893446 6.472488448883676
284 24 1 0.0 3.62746371217136 9.648964853003582 6.956993297839754
285 24 1 0.0 2.9882382017839766 9.890541318272144 5.58924166408214
286 24 1 0.0 2.9581600532850145 9.627994094369932 6.007957814982705
287 24 1 0.0 2.948322338615713 9.773150296598152 6.431773585399854
288 24 1 0.0 2.9059791007599065 9.676494284023393 6.912119259576823
289 25 5 8.861242189860825 4.483582436543291 0.48715695873070336 4.034737623804705
290 25 6 -8.861242189860825 4.504297602736261 0.38134872006432335 4.468335554670904
291 25 3 0.0 4.36433074950049 0.48506802202621196 4.940702647460806
292 25 3 0.0 4.184660358637557 0.8662359962094768 4.876829770636347
293 25 1 0.0 4.257564671960675 0.45428702887532557 5.48987029288216
294 25 2 0.0 4.512232215743683 0.6433372684108477 5.81682486316712
295 25 1 0.0 4.302968981615435 0.5915951661971423 6.221317045116482
296 25 1 0.0 4.274291674865999 0.6708405249476851 6.69950783114438
297 25 1 0.0 4.251079548472864 1.1927193912649001 5.26256085250249
298 25 1 0.0 3.9929047271690057 1.1586981079598981 5.683687043504509
299 25 1 0.0 4.113886953183656 1.2758818674103085 6.098919723383061
300 25 1 0.0 4.000497322154205 1.3286655308152844 6.574549808335693
301 26 5 8.861242189860825 4.115558907743368 1.7660449269549459 4.142801895243595
302 26 6 -8.861242189860825 3.9741589876754833 1.7618197387836587 4.566617748558742
303 26 3 0.0 4.070263915666754 1.863610030353573 5.050230882492131
304 26 3 0.0 4.486614964645191 1.9498105082922317 5.0207097052231395
305 26 1 0.0 4.0222362847026565 1.9632005794149536 5.59950916973081
306 26 2 0.0 4.1204706860968034 1.664464156949869 5.929056426176115
307 26 1 0.0 4.087366180191552 1.8715857970982854 6.3365941415209175
308 26 1 0.0 4.13335104090459 1.8708764513288487 6.819971356604194
309 26 1 0.0 4.757330326450891 1.8004278130600309 5.425912601054957
310 26 1 0.0 4.751498547521487 2.0505604293957904 5.8531813916545214
311 26 1 0.0 4.804310340144637 1.8968063503395496 6.270742774762458
312 26 1 0.0 4.844593145113941 1.9846919624798274 6.752946793889244
313 27 5 8.861242189860825 4.274418350833047 3.6450356531254866 4.091186144717268
314 27 6 -8.861242189860825 4.493280900446098 3.6431555533500464 4.480708052616224
315 27 3 0.0 4.51142912461948 3.490001762574523 4.959971698520448
316 27 3 0.0 4.1170744533565715 3.3325427892864314 4.996595232946129
317 27 1 0.0 4.681435676772439 3.360122084516457 5.47781396126348
318 27 2 0.0 4.602110926453111 3.6108733996138476 5.849736270245929
319 27 1 0.0 4.747526203968443 3.3833838164316123 6.220121418660622
320 27 1 0.0 4.7973842169175365 3.3398185286271396 6.7011462484679445
321 27 1 0.0 3.9100837732873117 3.400066170125023 5.45744969473153
322 27 1 0.0 4.039992958926405 3.12400430687191 5.847414316158493
323 27 1 0.0 4.045433316897313 3.2342066420521514 6.281710020437831
324 27 1 0.0 4.115023073849022 3.1048656944535855 6.751066480136853
325 28 5 8.861242189860825 5.021626846374347 4.304642677114243 3.953795897815861
326 28 6 -8.861242189860825 5.01138927048518 4.136472790991637 4.36761439495314
327 28 3 0.0 4.847149426835944 4.177752751253957 4.841745518793144
328 28 3 0.0 4.687552192835299 4.572587198716898 4.824872454885749
329 28 1 0.0 4.705787495836248 4.073377440627266 5.373773870129655
330 28 2 0.0 4.947518553562772 4.200396593696479 5.738365521760802
331 28 1 0.0 4.711933924006494 4.101268716303908 6.118833415015852
332 28 1 0.0 4.65731767251079 4.112000080157992 6.6011927681440685
333 28 1 0.0 4.743600339827155 4.836286402470154 5.257437731695615
334 28 1 0.0 4.458947631089624 4.754697728431767 5.654269028971815
335 28 1 0.0 4.558997771491425 4.804584418825972 6.088190909563943
336 28 1 0.0 4.418968555533747 4.793735964643942 6.55950973051175
337 29 5 8.861242189860825 4.6651374560628005 5.914246094617178 3.9682037872444456
338 29 6 -8.861242189860825 4.749536431576295 6.130040406421151 4.350226424082703
339 29 3 0.0 4.769146219988686 6.116899483322022 4.853139792659731
340 29 3 0.0 4.577635485710544 5.741960602159582 4.919432268390777
341 29 1 0.0 4.876660298582658 6.230783772579768 5.391101370464852
342 29 2 0.0 4.581456564304756 6.418673808901428 5.682729440915139
343 29 1 0.0 4.763962644166786 6.421021181597656 6.103167655415537
344 29 1 0.0 4.734503201275077 6.507543368455789 6.5800478238579645
345 29 1 0.0 4.292015751850393 5.728080878473342 5.341356555962574
346 29 1 0.0 4.491217467342252 5.688788506018904 5.792946791500135
347 29 1 0.0 4.3377283854896485 5.84582954527071 6.183543930087035
348 29 1 0.0 4.3811803718942635 5.8830289800483735 6.672006239983314
349 30 5 8.861242189860825 4.598862506661558 6.789898740271379 3.959967496436219
350 30 6 -8.861242189860825 4.695036128801874 6.6908123459421285 4.384895946877906
351 30 3 0.0 4.555106241782812 6.7014826320533345 4.868408982553374
352 30 3 0.0 4.21626674730037 6.957981648132196 4.836062885120994
353 30 1 0.0 4.511654714215839 6.6057770168040255 5.418757933303782
354 30 2 0.0 4.6719695178324585 6.879872704050212 5.745354871332199
355 30 1 0.0 4.537732149236262 6.723118977866185 6.154611355406983
356 30 1 0.0 4.507968513769727 6.763476766379331 6.637575140341243
357 30 1 0.0 4.15061960625356 7.264529468369676 5.23794628901191
358 30 1 0.0 3.9660461459491336 7.1002319554208855 5.667012623989336
359 30 1 0.0 4.047053006359457 7.245699482809565 6.083022236824668
360 30 1 0.0 3.9543211740645416 7.22346561751351 6.565488571165954
361 31 5 8.861242189860825 4.150787595709264 8.343705860512506 4.042034126720317
362 31 6 -8.861242189860825 4.019658312880306 8.309579611613282 4.467794831168678
363 31 3 0.0 4.074028824938697 8.460269650098349 4.945094992152149
364 31 3 0.0 4.434054788653189 8.684905317712694 4.905467469184463
365 31 1 0.0 3.994096093001564 8.561576608017498 5.490328177378856
366 31 2 0.0 4.190402125760781 8.3311275310719 5.830698573260153
367 31 1 0.0 4.086930329241874 8.531885530973852 6.229536992119194
368 31 1 0.0 4.130139688787454 8.569130879321637 6.71173443914893
369 31 1 0.0 4.739790514020171 8.657867015987485 5.312390041693116
370 31 1 0.0 4.646845211206106 8.909294586161385 5.728688375177792
371 31 1 0.0 4.749925685372684 8.802687484431894 6.151531434285953
372 31 1 0.0 4.7568471647756265 8.920819546569646 6.6288826784211805
373 32 5 8.861242189860825 4.633129971907883 9.265171551071179 4.010221250978646
374 32 6 -8.861242189860825 4.856975718781205 9.370172897127704 4.38237641494198
375 32 3 0.0 4.880993256663886 9.355786631988831 4.885064466525044
376 32 3 0.0 4.486846874655888 9.216770051288561 4.968570383261864
377 32 1 0.0 5.057395722320204 9.373641733757578 5.4165669905843625
378 32 2 0.0 4.983327368370782 9.7180905699304 5.705294751905548
379 32 1 0.0 5.133062656478187 9.601417142044657 6.1224864659630605
380 32 1 0.0 5.189015643242104 9.692640742292813 6.596106736515159
381 32 1 0.0 4.285922165287961 9.410513474649045 5.395049140778452
382 32 1 0.0 4.4203130836407665 9.252683145579415 5.844701921389147
383 32 1 0.0 4.4315403425990665 9.47892972627223 6.231319748591422
384 32 1 0.0 4.5069124707772295 9.484400179099191 6.717279024353553
385 33 5 8.861242189860825 5.429563817205216 0.613669319723964 4.239541070595779
386 33 6 -8.861242189860825 5.3722954592058345 0.38045305500979476 4.61631975387863
387 33 3 0.0 5.385996528658925 0.37130195566452107 5.119517152551937
388 33 3 0.0 5.5787014172543286 0.7449283475457908 5.189648197680772
389 33 1 0.0 5.315255266882454 0.23280804210687586 5.65779837776789
390 33 2 0.0 5.630539258375666 0.03535821325265753 5.92067555773732
391 33 1 0.0 5.476350495119236 0.012671663206262673 6.3517131631616115
392 33 1 0.0 5.538022311274959 10.279217046136235 6.821290358192561
393 33 1 0.0 5.8915727021327235 0.7432244565895572 5.5920162374119
394 33 1 0.0 5.7224838715885 0.7605953104842513 6.05706051018711
395 33 1 0.0 5.902706693451822 0.5881543359879465 6.429311441312745
396 33 1 0.0 5.892032832739674 0.5291020703211923 6.917436630046756
397 34 5 8.861242189860825 5.700094790944309 2.1558490863683764 4.168619959863273
398 34 6 -8.861242189860825 5.8279419467882105 1.9651441818607618 4.5519193353792
399 34 3 0.0 5.781303985617008 1.938806914319102 5.052529296198202
400 34 3 0.0 5.543731916267648 2.28661617310282 5.117632672908085
401 34 1 0.0 5.801039427588284 1.7727585933738352 5.587290958129648
402 34 2 0.0 6.093496738138585 1.9297097231280016 5.899268371301992
403 34 1 0.0 5.985471394827494 1.7562414333368526 6.30953846428577
404 34 1 0.0 6.0509640193690055 1.724953089275614 6.7896430344623635
405 34 1 0.0 5.648812070721276 2.5295026128880886 5.55324227111657
406 34 1 0.0 5.49475226817941 2.3607936660184117 5.992516471710862
407 34 1 0.0 5.686418770950349 2.40604376797585 6.395012795815711
408 34 1 0.0 5.672869397081582 2.334813437524087 6.881438489782414
409 35 5 8.861242189860825 5.712373266628174 2.877530301276498 4.204645771649645
410 35 6 -8.861242189860825 5.4711532299621295 2.9336542476438 4.57652567657397
411 35 3 0.0 5.46214061062718 3.0464559433946063 5.0671106682761575
412 35 3 0.0 5.880764703743765 3.0392298317710327 5.146809289737048
413 35 1 0.0 5.300402889217061 3.1926101404508724 5.583261254622941
414 35 2 0.0 5.242217142102649 2.903843134841691 5.930713232973009
415 35 1 0.0 5.154584671944803 3.141541795899703 6.312684656331779
416 35 1 0.0 5.075401164492891 3.1651937911762578 6.791160567862268
417 35 1 0.0 5.999347112786383 2.8644031700461 5.6106683568670155
418 35 1 0.0 5.9420655549621975 3.139563395594429 6.018301314600189
419 35 1 0.0 5.851507822023394 3.0079941317355807 6.436960766592069
420 35 1 0.0 5.787197811782935 3.1190981252275183 6.911710623329812
421 36 5 8.861242189860825 5.665845027815917 4.526408928355144 4.201670159513756
422 36 6 -8.861242189860825 5.458445237173672 4.535380219299051 4.597317110610168
423 36 3 0.0 5.495550780670229 4.533893823490009 5.099412772037643
424 36 3 0.0 5.909660625580259 4.440457549403679 5.137266666462129
425 36 1 0.0 5.389957293187476 4.583594346711186 5.647419561250147
426 36 2 0.0 5.299136986000224 4.237049635499455 5.92876148291971