LAMMPS data file via MDAnalysis

        2816  atoms
        1408  bonds
        1024  angles
           0  dihedrals
           0  impropers

           6  atom types
           1  bond types
           2  angle types
           0  dihedral types
           0  improper types

0.000000 70.000000 xlo xhi
0.000000 70.000000 ylo yhi
0.000000 70.000000 zlo zhi


Masses

1 72.000000
2 72.000000
3 72.000000
4 72.000000
5 72.000000
6 72.000000

Atoms

1 1 5 1.000000 66.400002 17.820000 48.750000
2 1 6 -1.000000 65.840004 20.769999 49.790001
3 1 3 0.000000 64.830002 24.119999 49.020000
4 1 3 0.000000 64.870003 23.959999 45.989998
5 1 1 0.000000 63.570000 27.889999 49.260002
6 1 2 0.000000 65.470001 30.510002 49.060001
7 1 1 0.000000 63.619999 33.189999 49.029999
8 1 1 0.000000 63.250000 36.610001 48.759998
9 1 1 0.000000 65.919998 27.030001 44.369999
10 1 1 0.000000 63.790001 29.820002 44.090000
11 1 1 0.000000 64.550003 32.910000 44.000000
12 1 1 0.000000 63.559998 36.250000 43.639999
13 2 5 1.000000 43.279999 29.020000 -0.720000
14 2 6 -1.000000 43.509998 31.270000 1.510000
15 2 3 0.000000 42.070000 34.139999 3.090000
16 2 3 0.000000 39.840000 34.709999 1.130000
17 2 1 0.000000 41.199997 37.070000 5.640000
18 2 2 0.000000 42.140003 40.159996 5.320000
19 2 1 0.000000 40.739998 41.959999 7.650000
20 2 1 0.000000 40.089996 45.000000 9.139999
21 2 1 0.000000 39.130001 38.230000 0.690000
22 2 1 0.000000 37.349998 40.100002 3.090000
23 2 1 0.000000 37.590000 43.189999 3.800000
24 2 1 0.000000 36.470001 45.960003 5.620000
25 3 5 1.000000 16.039999 2.540000 -4.530000
26 3 6 -1.000000 16.250000 0.940000 -1.790000
27 3 3 0.000000 16.639999 1.050000 1.770000
28 3 3 0.000000 17.369999 3.970000 2.090000
29 3 1 0.000000 16.680000 0.130000 5.640000
30 3 2 0.000000 19.330000 -0.630000 7.340000
31 3 1 0.000000 18.539999 -0.920000 10.490000
32 3 1 0.000000 19.410000 -1.420000 13.800000
33 3 1 0.000000 19.750000 4.600000 4.750000
34 3 1 0.000000 18.810001 4.570000 8.150000
35 3 1 0.000000 20.550001 3.790000 10.700001
36 3 1 0.000000 20.840000 3.500000 14.170000
37 4 5 1.000000 58.909996 56.739998 29.289999
38 4 6 -1.000000 61.040001 55.270000 27.449999
39 4 3 0.000000 64.450005 54.970001 26.389999
40 4 3 0.000000 65.580002 57.470001 27.679998
41 4 1 0.000000 67.880005 53.660004 24.840000
42 4 2 0.000000 69.139999 54.640003 22.019999
43 4 1 0.000000 72.099998 53.330002 21.650000
44 4 1 0.000000 75.059998 52.980000 19.910000
45 4 1 0.000000 68.189995 59.070000 25.730000
46 4 1 0.000000 71.459999 57.789997 25.580002
47 4 1 0.000000 73.580002 57.980000 23.210001
48 4 1 0.000000 76.799995 57.360001 21.980000
49 5 5 1.000000 10.490000 35.430000 48.209999
50 5 6 -1.000000 8.650000 37.550003 46.720001
51 5 3 0.000000 7.110000 38.639999 43.680000
52 5 3 0.000000 8.530000 36.799999 41.730000
53 5 1 0.000000 4.780000 40.440002 41.000000
54 5 2 0.000000 5.670000 42.940002 39.139999
55 5 1 0.000000 3.300000 43.590004 37.000000
56 5 1 0.000000 2.050000 45.349998 34.299999
57 5 1 0.000000 9.190001 38.310001 38.510002
58 5 1 0.000000 6.660000 38.740002 36.090000
59 5 1 0.000000 6.390000 40.989998 33.849998
60 5 1 0.000000 4.690000 42.309998 31.099998
61 6 5 1.000000 1.220000 31.420000 1.470000
62 6 6 -1.000000 3.980000 32.040001 0.030000
63 6 3 0.000000 7.550000 32.239998 0.260000
64 6 3 0.000000 7.860000 31.970001 3.260000
65 6 1 0.000000 11.440001 32.439999 -0.600000
66 6 2 0.000000 13.240000 35.130001 -0.450000
67 6 1 0.000000 16.360001 34.369999 -0.980000
68 6 1 0.000000 19.700001 35.230000 -1.170000
69 6 1 0.000000 10.599999 33.910000 4.630000
70 6 1 0.000000 13.960000 32.910000 4.290000
71 6 1 0.000000 16.580000 34.709999 4.120000
72 6 1 0.000000 20.060001 34.959999 3.950000
73 7 5 1.000000 2.450000 22.379999 55.849998
74 7 6 -1.000000 5.140000 22.390001 54.160000
75 7 3 0.000000 7.520000 20.550001 52.220001
76 7 3 0.000000 6.550000 17.740000 52.810001
77 7 1 0.000000 10.460000 19.510000 49.739998
78 7 2 0.000000 13.420000 18.580000 50.660000
79 7 1 0.000000 15.100000 17.600000 48.040001
80 7 1 0.000000 17.920000 16.240000 46.590000
81 7 1 0.000000 9.200000 15.280000 53.010002
82 7 1 0.000000 10.809999 14.010000 50.149998
83 7 1 0.000000 13.800000 12.980000 49.820000
84 7 1 0.000000 16.289999 11.520000 47.840000
85 8 5 1.000000 11.450000 -0.760000 42.970001
86 8 6 -1.000000 11.900001 0.980000 40.349998
87 8 3 0.000000 11.070000 1.590000 36.930000
88 8 3 0.000000 9.450000 -0.910000 36.360001
89 8 1 0.000000 10.620001 3.250000 33.329998
90 8 2 0.000000 12.420000 2.560000 30.730000
91 8 1 0.000000 11.190000 4.100000 28.129999
92 8 1 0.000000 11.160001 4.780000 24.740000
93 8 1 0.000000 9.840000 -2.180000 32.990002
94 8 1 0.000000 8.260000 -0.670000 30.230000
95 8 1 0.000000 9.220000 -0.540000 27.200001
96 8 1 0.000000 8.620000 0.390000 23.880001
97 9 5 1.000000 33.360001 78.669998 31.119999
98 9 6 -1.000000 33.239998 75.510002 30.830000
99 9 3 0.000000 33.970001 72.300003 32.239998
100 9 3 0.000000 35.720001 73.169998 34.560001
101 9 1 0.000000 34.040001 68.400002 33.049999
102 9 2 0.000000 36.389999 66.360001 32.160000
103 9 1 0.000000 35.840000 63.439999 33.489998
104 9 1 0.000000 36.770000 60.170002 34.119999
105 9 1 0.000000 38.399998 70.860001 35.320000
106 9 1 0.000000 37.830002 67.830002 37.029999
107 9 1 0.000000 39.400002 65.070000 36.799999
108 9 1 0.000000 39.889999 61.779999 37.880001
109 10 5 1.000000 22.160000 36.430000 50.139999
110 10 6 -1.000000 23.740002 38.580002 48.419998
111 10 3 0.000000 23.870001 40.619999 45.480000
112 10 3 0.000000 21.549999 39.430000 43.959999
113 10 1 0.000000 24.799999 43.430000 42.810001
114 10 2 0.000000 26.639999 42.959999 40.190002
115 10 1 0.000000 26.630001 45.669998 38.369999
116 10 1 0.000000 27.500000 47.399998 35.510002
117 10 1 0.000000 22.030001 39.360001 40.370003
118 10 1 0.000000 21.719999 42.239998 38.369999
119 10 1 0.000000 23.210001 42.970001 35.650002
120 10 1 0.000000 23.660000 45.139999 32.950001
121 11 5 1.000000 21.480000 6.200000 56.009998
122 11 6 -1.000000 19.450001 3.920000 56.860001
123 11 3 0.000000 16.240000 2.390000 56.430000
124 11 3 0.000000 14.930000 4.490000 54.680000
125 11 1 0.000000 13.170000 -0.150000 56.469997
126 11 2 0.000000 10.620001 0.050000 58.460003
127 11 1 0.000000 8.420000 -2.200000 57.630001
128 11 1 0.000000 5.330000 -3.700000 58.000000
129 11 1 0.000000 11.390000 4.920000 55.300003
130 11 1 0.000000 8.990000 2.610000 54.130001
131 11 1 0.000000 6.180000 1.830000 55.400002
132 11 1 0.000000 3.170000 0.050000 55.209999
133 12 5 1.000000 22.090000 14.650001 66.080002
134 12 6 -1.000000 24.890001 15.990000 65.380005
135 12 3 0.000000 28.110001 17.070000 66.519997
136 12 3 0.000000 27.690001 16.779999 69.500000
137 12 1 0.000000 31.900002 18.270000 66.690002
138 12 2 0.000000 32.869999 21.320000 67.220001
139 12 1 0.000000 36.110001 21.389999 67.540001
140 12 1 0.000000 39.049999 23.059999 68.189995
141 12 1 0.000000 29.400002 19.299999 71.479996
142 12 1 0.000000 32.869999 19.180000 72.050003
143 12 1 0.000000 34.910000 21.590000 72.510002
144 12 1 0.000000 38.139999 22.709999 73.239998
145 13 5 1.000000 26.689999 24.260002 64.279999
146 13 6 -1.000000 28.510000 23.570002 61.770000
147 13 3 0.000000 29.969999 21.059999 59.669998
148 13 3 0.000000 29.349998 18.609999 61.350002
149 13 1 0.000000 31.719999 19.129999 56.660000
150 13 2 0.000000 34.820000 18.200001 56.599998
151 13 1 0.000000 35.360001 16.410000 53.930000
152 13 1 0.000000 37.400002 14.450001 51.959999
153 13 1 0.000000 31.910000 16.059999 61.209999
154 13 1 0.000000 32.290001 13.930000 58.430000
155 13 1 0.000000 34.930000 12.560000 57.290001
156 13 1 0.000000 36.470001 10.410000 55.000000
157 14 5 1.000000 53.930000 50.300003 74.989998
158 14 6 -1.000000 53.369999 51.590000 72.150002
159 14 3 0.000000 53.579998 54.459999 70.019997
160 14 3 0.000000 54.369999 56.539997 72.080002
161 14 1 0.000000 53.649998 56.889999 66.860001
162 14 2 0.000000 51.220001 58.839996 65.959999
163 14 1 0.000000 52.199997 60.720001 63.489998
164 14 1 0.000000 51.669998 63.279999 61.230003
165 14 1 0.000000 52.970001 59.829998 71.459999
166 14 1 0.000000 54.239998 61.970001 68.970001
167 14 1 0.000000 52.719997 64.169998 67.239998
168 14 1 0.000000 52.810001 66.729996 64.870003
169 15 5 1.000000 70.110001 43.769997 55.520000
170 15 6 -1.000000 69.840004 45.610001 58.099998
171 15 3 0.000000 68.029999 48.160000 59.829998
172 15 3 0.000000 66.149994 49.020000 57.610001
173 15 1 0.000000 66.589996 50.610001 62.630001
174 15 2 0.000000 67.440002 53.720001 62.989998
175 15 1 0.000000 65.570000 55.089996 65.279999
176 15 1 0.000000 64.529999 57.830002 67.110001
177 15 1 0.000000 65.380005 52.560001 57.630001
178 15 1 0.000000 63.130001 53.979996 59.939999
179 15 1 0.000000 63.099998 56.910000 61.180000
180 15 1 0.000000 61.560001 59.320000 63.180000
181 16 5 1.000000 51.550003 22.780001 33.139999
182 16 6 -1.000000 54.410000 24.000000 33.759998
183 16 3 0.000000 56.450001 26.910000 34.180000
184 16 3 0.000000 54.520000 29.010000 33.169998
185 16 1 0.000000 59.400002 29.419998 35.130001
186 16 2 0.000000 61.599998 30.580002 33.060001
187 16 1 0.000000 63.439999 32.809998 34.560001
188 16 1 0.000000 65.919998 35.209999 34.540001
189 16 1 0.000000 56.110001 31.750000 31.400002
190 16 1 0.000000 57.840000 34.310001 33.080002
191 16 1 0.000000 60.330002 36.029999 32.079998
192 16 1 0.000000 62.600002 38.629997 32.620003
193 17 5 1.000000 54.599998 62.309998 12.730000
194 17 6 -1.000000 56.700001 62.540001 10.349999
195 17 3 0.000000 60.120003 62.659996 9.320000
196 17 3 0.000000 61.440002 62.970001 12.030000
197 17 1 0.000000 63.480000 62.570000 7.180000
198 17 2 0.000000 65.129997 65.169998 6.190000
199 17 1 0.000000 67.919998 64.220001 4.800000
200 17 1 0.000000 70.959999 64.910004 3.330000
201 17 1 0.000000 64.400002 65.050003 12.000000
202 17 1 0.000000 67.489998 63.889999 10.750000
203 17 1 0.000000 69.830002 65.540001 9.360000
204 17 1 0.000000 73.040001 65.630005 7.980000
205 18 5 1.000000 7.320000 -6.560000 -0.040000
206 18 6 -1.000000 10.120000 -5.720000 1.210000
207 18 3 0.000000 12.510000 -3.140000 1.860000
208 18 3 0.000000 11.330000 -0.940000 0.130000
209 18 1 0.000000 15.540000 -1.000000 3.300000
210 18 2 0.000000 18.370001 -0.530000 1.800000
211 18 1 0.000000 20.170000 1.590000 3.500000
212 18 1 0.000000 22.990000 3.530000 3.900000
213 18 1 0.000000 13.800000 1.200000 -1.420000
214 18 1 0.000000 15.520000 3.690000 0.380000
215 18 1 0.000000 18.459999 4.830000 -0.080000
216 18 1 0.000000 20.980000 7.090000 0.780000
217 19 5 1.000000 4.580000 12.730000 -4.690000
218 19 6 -1.000000 4.340000 10.930000 -2.080000
219 19 3 0.000000 5.610000 8.210000 -0.140000
220 19 3 0.000000 7.570000 7.050000 -2.140000
221 19 1 0.000000 6.410000 5.660000 2.810000
222 19 2 0.000000 5.120000 2.710000 3.120000
223 19 1 0.000000 6.550000 1.160000 5.610000
224 19 1 0.000000 7.020000 -1.650000 7.570000
225 19 1 0.000000 7.840000 3.440000 -2.000000
226 19 1 0.000000 9.639999 1.800000 0.540000
227 19 1 0.000000 9.150001 -1.080000 1.810000
228 19 1 0.000000 10.140000 -3.620000 3.990000
229 20 5 1.000000 51.950001 22.509998 16.540001
230 20 6 -1.000000 52.449997 20.439999 18.900000
231 20 3 0.000000 54.180000 17.530001 20.070000
232 20 3 0.000000 55.410000 16.610001 17.460001
233 20 1 0.000000 55.760002 14.680000 22.369999
234 20 2 0.000000 54.540001 11.710000 22.740000
235 20 1 0.000000 56.609997 9.910000 24.510000
236 20 1 0.000000 57.570000 6.910000 25.930000
237 20 1 0.000000 55.610001 13.000000 17.139999
238 20 1 0.000000 58.049999 11.110000 18.830000
239 20 1 0.000000 57.880001 8.110000 19.880001
240 20 1 0.000000 59.419998 5.350000 21.389999
241 21 5 1.000000 -2.280000 39.739998 11.799999
242 21 6 -1.000000 -0.370000 42.000000 10.650001
243 21 3 0.000000 0.080000 44.730000 8.380000
244 21 3 0.000000 -2.430000 44.410000 6.720000
245 21 1 0.000000 1.440000 47.989998 6.530000
246 21 2 0.000000 3.150000 47.980000 3.770000
247 21 1 0.000000 3.580000 51.049999 2.760000
248 21 1 0.000000 4.710000 53.349998 0.450000
249 21 1 0.000000 -2.010000 45.270000 3.230000
250 21 1 0.000000 -1.840000 48.610001 2.120000
251 21 1 0.000000 -0.270000 49.809998 -0.370000
252 21 1 0.000000 0.510000 52.550003 -2.400000
253 22 5 1.000000 42.529999 11.180000 9.470000
254 22 6 -1.000000 42.529999 14.360000 9.280000
255 22 3 0.000000 43.360001 17.280001 7.390000
256 22 3 0.000000 45.040001 16.010000 5.220000
257 22 1 0.000000 43.570000 21.010000 6.000000
258 22 2 0.000000 46.000000 23.070000 6.560000
259 22 1 0.000000 45.549999 25.780001 4.800000
260 22 1 0.000000 46.599998 28.870001 3.680000
261 22 1 0.000000 47.800003 18.080000 4.090000
262 22 1 0.000000 47.320000 20.830000 1.950000
263 22 1 0.000000 49.000000 23.529999 1.750000
264 22 1 0.000000 49.599998 26.600000 0.180000
265 23 5 1.000000 39.719997 32.690002 56.620003
266 23 6 -1.000000 36.610001 33.349998 56.529999
267 23 3 0.000000 33.440002 32.830002 54.970001
268 23 3 0.000000 34.349998 31.320000 52.500000
269 23 1 0.000000 29.530001 32.690002 54.180000
270 23 2 0.000000 27.950001 34.739998 52.230000
271 23 1 0.000000 24.879999 33.730000 51.869999
272 23 1 0.000000 21.740000 34.000000 50.450001
273 23 1 0.000000 32.400002 32.049999 49.540001
274 23 1 0.000000 29.180000 30.710001 49.029999
275 23 1 0.000000 26.719999 31.949999 47.439999
276 23 1 0.000000 23.459999 31.639999 46.209999
277 24 5 1.000000 21.650000 19.610001 8.240000
278 24 6 -1.000000 18.660000 19.370001 9.290000
279 24 3 0.000000 15.270000 18.420000 8.620000
280 24 3 0.000000 15.480000 17.930000 5.640000
281 24 1 0.000000 11.440001 17.400000 8.990000
282 24 2 0.000000 8.930000 19.370001 8.400000
283 24 1 0.000000 6.160000 17.670000 8.620000
284 24 1 0.000000 2.720000 17.430000 8.340000
285 24 1 0.000000 12.500000 18.850000 3.790000
286 24 1 0.000000 9.599999 16.840000 3.810000
287 24 1 0.000000 6.550000 17.719999 3.510000
288 24 1 0.000000 3.180000 16.849998 3.250000
289 25 5 1.000000 52.649998 15.620001 47.180000
290 25 6 -1.000000 53.959999 13.380001 49.010002
291 25 3 0.000000 53.959999 9.960000 50.079998
292 25 3 0.000000 51.350002 9.060000 48.850002
293 25 1 0.000000 54.990002 6.440000 51.630001
294 25 2 0.000000 53.950001 5.280000 54.470001
295 25 1 0.000000 54.990002 2.220000 54.840004
296 25 1 0.000000 55.110001 -0.760000 56.590000
297 25 1 0.000000 49.559998 6.620000 50.849998
298 25 1 0.000000 50.529999 3.240000 51.000000
299 25 1 0.000000 50.200001 1.160000 53.390003
300 25 1 0.000000 50.549999 -2.090000 54.629997
301 26 5 1.000000 50.190002 55.779999 53.309998
302 26 6 -1.000000 51.590000 54.619999 50.709999
303 26 3 0.000000 52.140003 54.889999 47.180000
304 26 3 0.000000 50.060001 56.980000 46.520000
305 26 1 0.000000 53.610001 54.510002 43.489998
306 26 2 0.000000 52.340004 52.639999 41.170002
307 26 1 0.000000 53.930000 53.160000 38.380001
308 26 1 0.000000 54.369999 52.630001 34.990002
309 26 1 0.000000 48.500000 56.529999 43.279999
310 26 1 0.000000 50.139999 57.369999 40.279999
311 26 1 0.000000 49.829998 56.059998 37.389999
312 26 1 0.000000 50.650002 56.040001 33.989998
313 27 5 1.000000 60.799999 6.910000 47.980000
314 27 6 -1.000000 59.070000 8.440000 45.809998
315 27 3 0.000000 55.879997 8.970000 44.279999
316 27 3 0.000000 54.360001 6.650000 45.510002
317 27 1 0.000000 52.820000 10.470000 42.210003
318 27 2 0.000000 51.849998 9.440001 39.299999
319 27 1 0.000000 49.099998 10.970000 38.469997
320 27 1 0.000000 46.440002 11.469999 36.329998
321 27 1 0.000000 51.910000 5.160000 43.290001
322 27 1 0.000000 48.810001 6.700000 42.639999
323 27 1 0.000000 47.010002 6.550000 40.009998
324 27 1 0.000000 44.060001 7.370000 38.329998
325 28 5 1.000000 75.849998 35.750000 70.570000
326 28 6 -1.000000 73.459999 34.750000 68.720001
327 28 3 0.000000 70.019997 35.009998 67.800003
328 28 3 0.000000 69.040001 36.790001 70.050003
329 28 1 0.000000 66.540001 34.770000 65.869995
330 28 2 0.000000 64.159996 32.700001 66.589996
331 28 1 0.000000 61.550003 33.369999 64.750000
332 28 1 0.000000 58.260002 32.850002 63.860001
333 28 1 0.000000 65.660004 36.059998 71.139999
334 28 1 0.000000 62.849998 37.060001 69.279999
335 28 1 0.000000 59.990002 35.669998 69.059998
336 28 1 0.000000 56.709999 35.689999 67.849998
337 29 5 1.000000 31.820000 53.189999 31.289999
338 29 6 -1.000000 30.299999 51.810001 33.709999
339 29 3 0.000000 29.360001 51.919998 37.169998
340 29 3 0.000000 31.099998 54.230000 38.070000
341 29 1 0.000000 27.590000 51.279999 40.680000
342 29 2 0.000000 28.829998 49.510002 43.090000
343 29 1 0.000000 26.900002 49.770004 45.709999
344 29 1 0.000000 26.189999 49.109997 49.020000
345 29 1 0.000000 32.360001 53.880001 41.450001
346 29 1 0.000000 30.330000 54.439999 44.270000
347 29 1 0.000000 30.500000 53.110001 47.160000
348 29 1 0.000000 29.349998 52.900002 50.459999
349 30 5 1.000000 30.030001 25.760000 56.919998
350 30 6 -1.000000 31.779999 23.670002 58.549999
351 30 3 0.000000 34.599998 23.070000 60.680000
352 30 3 0.000000 35.940002 25.780001 60.480000
353 30 1 0.000000 37.200001 21.459999 63.220001
354 30 2 0.000000 40.019997 20.100000 62.389999
355 30 1 0.000000 41.680000 19.320000 65.089996
356 30 1 0.000000 44.510002 18.129999 66.659996
357 30 1 0.000000 39.560001 25.629999 60.549999
358 30 1 0.000000 41.350002 25.090000 63.530003
359 30 1 0.000000 44.169998 23.650000 63.950001
360 30 1 0.000000 46.790001 22.700001 66.059998
361 31 5 1.000000 -7.720000 64.389999 42.529999
362 31 6 -1.000000 -5.550000 63.740002 40.310001
363 31 3 0.000000 -3.070000 61.479996 39.059998
364 31 3 0.000000 -2.890000 59.599998 41.420002
365 31 1 0.000000 -0.450000 59.570000 36.740002
366 31 2 0.000000 2.760000 59.930000 36.889999
367 31 1 0.000000 4.180000 57.770000 34.889999
368 31 1 0.000000 6.980000 56.259998 33.570000
369 31 1 0.000000 0.450000 58.309998 42.010002
370 31 1 0.000000 1.850000 55.760002 40.009998
371 31 1 0.000000 4.910000 55.250000 39.279999
372 31 1 0.000000 7.340000 53.270000 37.739998
373 32 5 1.000000 1.350000 39.080002 6.860000
374 32 6 -1.000000 2.840000 36.570000 5.600000
375 32 3 0.000000 4.090000 33.250000 6.040000
376 32 3 0.000000 3.770000 33.000000 9.049999
377 32 1 0.000000 5.500000 29.570000 5.420000
378 32 2 0.000000 8.590000 28.680000 5.770000
379 32 1 0.000000 8.830000 25.450001 5.390000
380 32 1 0.000000 10.660000 22.520000 5.430000
381 32 1 0.000000 6.380000 31.040001 10.640000
382 32 1 0.000000 6.450000 27.530001 10.470000
383 32 1 0.000000 8.960000 25.570000 10.510000
384 32 1 0.000000 10.250000 22.320002 10.549999
385 33 5 1.000000 3.480000 9.510000 2.630000
386 33 6 -1.000000 4.660000 7.120000 4.360000
387 33 3 0.000000 6.140000 6.030000 7.430000
388 33 3 0.000000 6.730000 8.730000 8.670000
389 33 1 0.000000 7.480000 3.830000 10.460000
390 33 2 0.000000 10.580000 3.030000 10.959999
391 33 1 0.000000 10.860000 1.500000 13.830000
392 33 1 0.000000 12.760000 0.040000 16.310001
393 33 1 0.000000 9.780000 8.820001 10.629999
394 33 1 0.000000 9.969999 7.410000 13.850000
395 33 1 0.000000 12.480000 6.120000 15.330000
396 33 1 0.000000 13.880000 4.690000 18.190001
397 34 5 1.000000 6.300000 69.139999 44.580002
398 34 6 -1.000000 8.270000 69.040001 42.090000
399 34 3 0.000000 11.370000 67.900002 40.709999
400 34 3 0.000000 12.680000 66.880005 43.239998
401 34 1 0.000000 14.309999 66.900002 38.220001
402 34 2 0.000000 16.970001 68.660004 37.669998
403 34 1 0.000000 19.010000 66.979996 35.770000
404 34 1 0.000000 22.040001 66.620003 34.150002
405 34 1 0.000000 16.270000 67.370003 43.330002
406 34 1 0.000000 18.480000 65.339996 41.490002
407 34 1 0.000000 21.320000 66.080002 40.250000
408 34 1 0.000000 24.219999 65.110001 38.559998
409 35 5 1.000000 22.460001 42.610001 4.170000
410 35 6 -1.000000 20.120001 42.830002 6.310000
411 35 3 0.000000 16.910000 44.160000 7.190000
412 35 3 0.000000 16.570000 46.139999 4.920000
413 35 1 0.000000 13.389999 44.829998 8.920000
414 35 2 0.000000 12.770000 47.239998 11.000000
415 35 1 0.000000 9.590000 47.270004 11.690001
416 35 1 0.000000 6.840000 48.680000 13.230000
417 35 1 0.000000 14.820000 49.169998 5.870000
418 35 1 0.000000 11.330000 49.250000 6.320000
419 35 1 0.000000 9.610001 51.090004 8.270000
420 35 1 0.000000 6.480000 52.140003 9.440001
421 36 5 1.000000 59.730000 64.029999 39.570000
422 36 6 -1.000000 59.230000 64.809998 42.610001
423 36 3 0.000000 60.209999 64.470001 46.030003
424 36 3 0.000000 62.169998 62.180000 45.750000
425 36 1 0.000000 60.680000 65.000000 49.949997
426 36 2 0.000000 59.169998 63.299999 52.259998
427 36 1 0.000000 60.349998 64.139999 55.170002
428 36 1 0.000000 60.520000 63.759998 58.600002
429 36 1 0.000000 62.189999 59.910004 48.570000
430 36 1 0.000000 63.740002 60.720001 51.630001
431 36 1 0.000000 62.970001 59.780003 54.580002
432 36 1 0.000000 63.670002 59.739998 58.000000
433 37 5 1.000000 54.829998 30.309999 -5.120000
434 37 6 -1.000000 53.969997 29.779999 -2.110000
435 37 3 0.000000 53.930000 27.539999 0.690000
436 37 3 0.000000 54.899998 25.020000 -0.690000
437 37 1 0.000000 53.649998 25.990000 4.340000
438 37 2 0.000000 51.119999 24.300001 5.450000
439 37 1 0.000000 51.830002 23.110001 8.410000
440 37 1 0.000000 51.040001 21.199999 11.170000
441 37 1 0.000000 53.410000 21.980000 0.590000
442 37 1 0.000000 54.400002 20.559999 3.660000
443 37 1 0.000000 52.680000 18.840000 5.720000
444 37 1 0.000000 52.500000 16.959999 8.660000
445 38 5 1.000000 30.739998 59.299999 69.720001
446 38 6 -1.000000 31.150000 57.029999 67.540001
447 38 3 0.000000 29.920002 54.050003 65.980003
448 38 3 0.000000 27.679998 53.390003 67.909996
449 38 1 0.000000 29.289999 51.020004 63.470001
450 38 2 0.000000 30.400000 48.010002 63.870003
451 38 1 0.000000 29.160000 46.079998 61.560001
452 38 1 0.000000 28.730000 42.980000 60.110001
453 38 1 0.000000 27.170000 49.829998 68.400002
454 38 1 0.000000 25.559999 47.820000 66.000000
455 38 1 0.000000 26.000000 44.730000 65.349998
456 38 1 0.000000 25.090000 41.869999 63.570000
457 39 5 1.000000 51.830002 37.250000 7.500000
458 39 6 -1.000000 52.690002 34.770000 9.300000
459 39 3 0.000000 52.789997 33.259998 12.539999
460 39 3 0.000000 51.910000 35.630001 14.210000
461 39 1 0.000000 53.110001 30.660000 15.549999
462 39 2 0.000000 55.689999 30.369999 17.480000
463 39 1 0.000000 55.009998 28.260000 19.869999
464 39 1 0.000000 55.849998 26.619999 22.790001
465 39 1 0.000000 53.500000 35.799999 17.460001
466 39 1 0.000000 52.540001 33.699997 20.130001
467 39 1 0.000000 54.310001 32.579998 22.530001
468 39 1 0.000000 54.540001 30.780001 25.520000
469 40 5 1.000000 68.180000 12.730000 42.680000
470 40 6 -1.000000 67.340004 14.930000 40.540001
471 40 3 0.000000 67.909996 18.160000 39.119999
472 40 3 0.000000 69.870003 19.250000 41.149998
473 40 1 0.000000 67.930000 21.340000 36.709999
474 40 2 0.000000 66.149994 24.010000 37.149998
475 40 1 0.000000 67.000000 26.250000 34.930000
476 40 1 0.000000 66.770004 29.419998 33.590000
477 40 1 0.000000 69.540001 22.799999 41.760002
478 40 1 0.000000 70.729996 25.209999 39.480000
479 40 1 0.000000 69.629997 28.139999 38.900002
480 40 1 0.000000 69.930000 31.199999 37.230000
481 41 5 1.000000 65.240005 14.140000 59.389999
482 41 6 -1.000000 62.750000 14.950000 57.600002
483 41 3 0.000000 59.209999 15.460000 57.360001
484 41 3 0.000000 58.369999 14.280000 60.029999
485 41 1 0.000000 55.570000 16.580000 56.189999
486 41 2 0.000000 53.410000 14.639999 54.750000
487 41 1 0.000000 50.590000 16.240000 54.419998
488 41 1 0.000000 47.259998 16.350000 53.509998
489 41 1 0.000000 55.180000 12.580000 59.939999
490 41 1 0.000000 52.119999 14.330000 59.869999
491 41 1 0.000000 49.349998 13.480000 58.549999
492 41 1 0.000000 45.970001 14.130000 57.970001
493 42 5 1.000000 17.280001 30.680000 30.650002
494 42 6 -1.000000 15.820000 28.099998 29.510000
495 42 3 0.000000 13.459999 25.469999 30.050001
496 42 3 0.000000 12.960000 25.860001 33.010002
497 42 1 0.000000 10.889999 22.460001 29.540001
498 42 2 0.000000 11.540001 19.349998 30.150002
499 42 1 0.000000 8.820001 17.590000 29.790001
500 42 1 0.000000 7.090000 14.610000 29.969999
501 42 1 0.000000 12.389999 22.770000 34.820000
502 42 1 0.000000 9.330000 21.029999 34.649998
503 42 1 0.000000 8.770000 17.910000 34.900002
504 42 1 0.000000 6.510000 15.250000 35.040001
505 43 5 1.000000 20.160000 22.830000 28.199999
506 43 6 -1.000000 21.580000 20.400000 29.680000
507 43 3 0.000000 23.340000 17.299999 29.419998
508 43 3 0.000000 22.939999 16.760000 26.459999
509 43 1 0.000000 25.550001 14.080000 30.179998
510 43 2 0.000000 24.389999 11.120000 30.780001
511 43 1 0.000000 26.860001 9.000000 30.969999
512 43 1 0.000000 28.080002 5.790000 31.310001
513 43 1 0.000000 22.560001 13.250000 25.650002
514 43 1 0.000000 25.299999 11.040000 25.570000
515 43 1 0.000000 25.369999 7.920000 26.189999
516 43 1 0.000000 27.150000 4.910000 26.320000
517 44 5 1.000000 68.909996 48.119999 23.670002
518 44 6 -1.000000 65.919998 47.140003 23.299999
519 44 3 0.000000 63.670002 44.570000 22.200001
520 44 3 0.000000 65.650002 42.789997 20.750000
521 44 1 0.000000 60.459999 42.290001 21.600000
522 44 2 0.000000 58.649998 42.299999 18.920000
523 44 1 0.000000 56.430000 39.920002 19.110001
524 44 1 0.000000 53.870003 38.060001 17.740000
525 44 1 0.000000 64.279999 41.170002 17.809999
526 44 1 0.000000 62.110001 38.399998 18.040001
527 44 1 0.000000 59.780003 37.529999 16.059999
528 44 1 0.000000 57.299999 35.230000 15.150000
529 45 5 1.000000 44.169998 -7.900000 63.610001
530 45 6 -1.000000 44.710003 -5.020000 62.389999
531 45 3 0.000000 46.149998 -1.770000 62.779999
532 45 3 0.000000 46.860001 -1.910000 65.720001
533 45 1 0.000000 47.620003 1.870000 62.119999
534 45 2 0.000000 46.059998 4.640000 62.729996
535 45 1 0.000000 48.070000 7.150000 62.220001
536 45 1 0.000000 48.790001 10.530000 62.290001
537 45 1 0.000000 46.510002 1.250000 67.470001
538 45 1 0.000000 48.870003 3.840000 67.129997
539 45 1 0.000000 48.419998 6.990000 67.330002
540 45 1 0.000000 49.750000 10.230000 67.330002
541 46 5 1.000000 57.040001 29.049999 49.139999
542 46 6 -1.000000 59.470001 27.830000 50.770000
543 46 3 0.000000 60.960003 24.960001 52.320000
544 46 3 0.000000 58.610001 23.050001 52.160000
545 46 1 0.000000 63.520004 22.410000 53.990002
546 46 2 0.000000 63.699997 21.779999 57.160000
547 46 1 0.000000 65.820000 19.349998 57.659996
548 46 1 0.000000 67.410004 17.090000 59.730000
549 46 1 0.000000 58.360001 20.799999 55.000000
550 46 1 0.000000 60.470001 18.010000 55.359997
551 46 1 0.000000 61.510002 16.610001 58.020000
552 46 1 0.000000 63.279999 14.030000 59.580002
553 47 5 1.000000 24.740000 44.689999 21.040001
554 47 6 -1.000000 27.390001 44.669998 19.290001
555 47 3 0.000000 30.669998 45.980000 18.730000
556 47 3 0.000000 30.599998 48.320000 20.660000
557 47 1 0.000000 34.419998 46.529999 17.480000
558 47 2 0.000000 35.330002 48.600002 15.170000
559 47 1 0.000000 38.580002 48.670002 14.990000
560 47 1 0.000000 41.520000 49.939999 13.700000
561 47 1 0.000000 32.430000 51.230003 19.510000
562 47 1 0.000000 35.940002 51.399998 19.610001
563 47 1 0.000000 37.930000 52.980000 17.690001
564 47 1 0.000000 41.180000 53.969997 16.870001
565 48 5 1.000000 15.740000 21.910000 51.399998
566 48 6 -1.000000 15.190001 22.740000 54.410000
567 48 3 0.000000 14.379999 21.719999 57.750000
568 48 3 0.000000 13.660001 18.830000 57.210003
569 48 1 0.000000 13.870000 21.600000 61.700001
570 48 2 0.000000 11.020000 21.940001 63.209999
571 48 1 0.000000 11.420000 21.389999 66.400002
572 48 1 0.000000 10.170000 21.029999 69.590004
573 48 1 0.000000 10.990000 17.570000 59.320000
574 48 1 0.000000 11.520000 16.699999 62.690002
575 48 1 0.000000 9.480000 16.820000 65.129997
576 48 1 0.000000 8.770000 16.200001 68.500000
577 49 5 1.000000 61.700001 47.620003 71.639999
578 49 6 -1.000000 62.840000 47.690002 68.669998
579 49 3 0.000000 63.279999 46.000000 65.549995
580 49 3 0.000000 62.410004 43.220001 66.360001
581 49 1 0.000000 63.979996 45.159996 61.720001
582 49 2 0.000000 66.720001 43.860001 60.570000
583 49 1 0.000000 66.350006 43.189999 57.399998
584 49 1 0.000000 67.510002 41.869999 54.430000
585 49 1 0.000000 64.239998 40.560001 64.720001
586 49 1 0.000000 63.619999 39.660000 61.370003
587 49 1 0.000000 65.630005 38.459999 59.209999
588 49 1 0.000000 66.199997 37.149998 56.020004
589 50 5 1.000000 61.469997 9.000000 37.720001
590 50 6 -1.000000 63.520004 7.980000 35.520000
591 50 3 0.000000 65.879997 5.490000 34.489998
592 50 3 0.000000 66.110001 3.940000 37.079998
593 50 1 0.000000 68.340004 3.200000 32.349998
594 50 2 0.000000 71.570000 3.470000 32.320000
595 50 1 0.000000 72.830002 1.020000 30.590000
596 50 1 0.000000 75.529999 -0.760000 29.370001
597 50 1 0.000000 69.430000 2.630000 37.709999
598 50 1 0.000000 70.680000 -0.200000 36.029999
599 50 1 0.000000 73.680000 -0.920000 35.250000
600 50 1 0.000000 75.989998 -3.170000 33.889999
601 51 5 1.000000 25.900000 29.530001 61.320000
602 51 6 -1.000000 25.969999 31.840000 63.500000
603 51 3 0.000000 24.730000 35.009998 64.610001
604 51 3 0.000000 23.210001 35.829998 62.119999
605 51 1 0.000000 23.800001 38.200001 66.799995
606 51 2 0.000000 25.340000 41.049999 66.680000
607 51 1 0.000000 23.750000 43.209999 68.529999
608 51 1 0.000000 23.310001 46.409996 69.759995
609 51 1 0.000000 23.299999 39.389999 61.459999
610 51 1 0.000000 21.340000 41.690002 63.279999
611 51 1 0.000000 21.960001 44.730000 63.979996
612 51 1 0.000000 20.940001 47.760002 65.400002
613 52 5 1.000000 21.760002 -7.600000 6.910000
614 52 6 -1.000000 23.820000 -5.200000 7.190000
615 52 3 0.000000 24.740000 -2.150000 8.820001
616 52 3 0.000000 22.180000 -1.640000 10.369999
617 52 1 0.000000 26.740000 1.010000 10.190001
618 52 2 0.000000 26.520000 4.010000 9.000000
619 52 1 0.000000 28.220001 6.050000 10.889999
620 52 1 0.000000 29.279999 9.230000 11.740000
621 52 1 0.000000 21.340000 1.870000 10.690001
622 52 1 0.000000 23.000000 4.000000 12.950000
623 52 1 0.000000 23.559999 7.120000 12.730000
624 52 1 0.000000 24.809999 10.070000 14.130000
625 53 5 1.000000 9.590000 32.340000 17.790001