Lipid soup setup

4401 atoms
1408 bonds
1024 angles
0 dihedrals
0 impropers

6 atom types
2 bond types
3 angle types
0 dihedral types
0 improper types

0 10.548523206751055 xlo xhi
0 10.548523206751055 ylo yhi
0 13.185654008438819 zlo zhi

Masses

1 1
2 1
3 1
4 1
5 1
6 1

Atoms

1 1 5 8.861242189860825 6.0921496258258205 3.89360087252154 0.36127637101898635
2 1 6 -8.861242189860825 5.67932352911483 4.002406317091851 0.22948996717640935
3 1 3 0.0 5.275953919556441 4.297922893451707 0.2881584863006486
4 1 3 0.0 5.3831102605767835 4.488318167633252 0.6541057180678969
5 1 1 0.0 4.7934449435267075 4.572158554635785 0.21127248096875262
6 1 2 0.0 4.3952357290676956 4.4592132029857146 0.4014503214647222
7 1 1 0.0 4.083603162258744 4.7807751358687725 0.30364777455494707
8 1 1 0.0 3.639010800036324 4.970856031575798 0.3480946775807484
9 1 1 0.0 4.986792500307036 4.586486801641761 0.9592065796441854
10 1 1 0.0 4.674934935906025 4.961353198880672 0.8733054820501708
11 1 1 0.0 4.23949904566852 4.994625157331887 0.9736821387159937
12 1 1 0.0 3.8259458703081215 5.260583448164092 0.9840387765119241
13 2 5 8.861242189860825 3.788747249340695 6.197872906598441 11.9324566400355
14 2 6 -8.861242189860825 4.197302236465076 6.271786790727696 11.767377182318143
15 2 3 0.0 4.599087370067678 6.573977288962587 11.74038286537073
16 2 3 0.0 4.437827641628312 6.919583301049502 11.930651104135606
17 2 1 0.0 5.113265083840384 6.780156769206446 11.65646106715315
18 2 2 0.0 5.234869045596763 7.0452250891575305 11.306538069625702
19 2 1 0.0 5.665600259498104 7.1894521189628575 11.367787206779404
20 2 1 0.0 6.0488884461494035 7.455856642865445 11.234043278821249
21 2 1 0.0 4.608636064907243 7.359529809761478 11.738133739848568
22 2 1 0.0 5.060929315998302 7.533440863704373 11.839842712681937
23 2 1 0.0 5.328933832978114 7.7877083419225706 11.58625142866671
24 2 1 0.0 5.746987889915238 8.04124729542081 11.533184435187506
25 3 5 8.861242189860825 4.562808848281449 0.9364304187562896 2.395745759911688
26 3 6 -8.861242189860825 4.301236898919159 1.1037092021382708 2.7170393811813747
27 3 3 0.0 3.9291833374725824 1.0282350544891425 3.047733929679722
28 3 3 0.0 3.7951838866317633 0.6463248251923965 2.9141714266239935
29 3 1 0.0 3.5729917262237527 1.0751874557762247 3.477681107504587
30 3 2 0.0 3.143185475580286 1.2227633602591124 3.4463317649437797
31 3 1 0.0 2.9359965699536055 1.1743262941349684 3.8522983640230217
32 3 1 0.0 2.5426960558398735 1.2005544156230807 4.135839249767849
33 3 1 0.0 3.292020502658232 0.577570671859171 2.9576554348414374
34 3 1 0.0 3.075744182443227 0.48408516524890216 3.3931367412013613
35 3 1 0.0 2.6629069419355895 0.5899536314366688 3.5314992782068866
36 3 1 0.0 2.3119178319315616 0.5664306669882591 3.8751860775775224
37 4 5 8.861242189860825 7.5479074264590444 2.6149610546347404 12.148669676519301
38 4 6 -8.861242189860825 7.2185773491411105 2.5932214356822523 12.449835339025997
39 4 3 0.0 7.0409686642403235 2.7329944062571365 12.899721719903942
40 4 3 0.0 7.392327670510805 2.9143561156607465 13.058797165414763
41 4 1 0.0 6.70902144409113 2.838897127214622 0.15284695477461505
42 4 2 0.0 6.684958005446962 2.5845934633184675 0.5300013520772865
43 4 1 0.0 6.415764729690415 2.793096882318394 0.8368296038897021
44 4 1 0.0 6.215060027780992 2.8214703893599724 1.2780565402586108
45 4 1 0.0 7.448852326129463 2.8488003042010237 0.3754366791658765
46 4 1 0.0 7.184901025459586 3.1062673975225406 0.7058899459860399
47 4 1 0.0 7.051410479629217 2.9852268445506858 1.1161537265464176
48 4 1 0.0 6.829797590428485 3.0982036386029246 1.5404075098003502
49 5 5 8.861242189860825 7.492025909694185 0.023299181055252083 10.98957549319142
50 5 6 -8.861242189860825 7.281068155958625 0.4168538524073542 10.97398017571087
51 5 3 0.0 7.231628602284712 0.8828260755942534 11.15811246974359
52 5 3 0.0 7.478514869538664 0.8465496550066663 11.503628620799383
53 5 1 0.0 7.100263056837455 1.4229080891279622 11.228724648274966
54 5 2 0.0 6.767570693108336 1.5780612651333608 11.498424713248818
55 5 1 0.0 6.783965347493297 2.035921614950826 11.511743381729145
56 5 1 0.0 6.628120030427467 2.463156866261774 11.68189308003568
57 5 1 0.0 7.312871154561876 1.1143402736634096 11.904429977821843
58 5 1 0.0 7.369325898057157 1.6053259947769996 11.934510510069764
59 5 1 0.0 7.110095313437909 1.9068975037137732 12.141007580085482
60 5 1 0.0 7.027489908509559 2.371916764925368 12.278123352476328
61 6 5 8.861242189860825 4.433167866740098 2.626709607882591 9.443901902338332
62 6 6 -8.861242189860825 4.625327558773183 2.603767125330016 9.041186168372539
63 6 3 0.0 4.818227074609147 2.847616208681945 8.645198182072898
64 6 3 0.0 4.694191297545422 3.2438126735120725 8.741602048976427
65 6 1 0.0 5.094501529289239 2.9786213146028806 8.175686035750687
66 6 2 0.0 4.90304932810998 3.032092039827838 7.765830234080556
67 6 1 0.0 5.218442696795258 3.182870003156338 7.469392550373972
68 6 1 0.0 5.347961479631307 3.342599710096566 7.029528993959782
69 6 1 0.0 4.5739149927801295 3.5268536046586383 8.335138243268451
70 6 1 0.0 4.919224301016815 3.7233177234430226 8.039634797440412
71 6 1 0.0 4.897011727562749 3.813938239384015 7.601363837187907
72 6 1 0.0 5.102901921852698 4.002440538110266 7.1964645749884575
73 7 5 8.861242189860825 0.8874138549787935 10.015515723087816 2.014630928795624
74 7 6 -8.861242189860825 0.9793840489910108 9.650654347679788 1.773696648793276
75 7 3 0.0 0.8270088760901315 9.202952693521823 1.601000037643496
76 7 3 0.0 0.47259047844996216 9.156923448787094 1.8332049607889171
77 7 1 0.0 0.7763510584986909 8.72666182164083 1.3102899440623772
78 7 2 0.0 0.9096408267961056 8.316065361385649 1.4556832948328573
79 7 1 0.0 0.7760672969120173 7.9975367360270155 1.1543862677998857
80 7 1 0.0 0.7315899221270371 7.534414671623543 1.0154317455892576
81 7 1 0.0 0.37643516870263827 8.675261902905836 1.9693948839462219
82 7 1 0.0 0.19266785191116254 8.34338766968429 1.6511999414601104
83 7 1 0.0 0.25327536440649545 7.8995477854566705 1.6402547357764066
84 7 1 0.0 0.15021701568022422 7.462414737024513 1.439852699894243
85 8 5 8.861242189860825 8.529514252664756 3.0057320673610923 7.572341857264161
86 8 6 -8.861242189860825 8.942817026754499 2.906780932460742 7.710259067804356
87 8 3 0.0 9.436604157080627 3.00106851113216 7.682632877557814
88 8 3 0.0 9.437947795485112 3.261110046107777 7.344954312924213
89 8 1 0.0 9.986803163211206 3.0257129283041606 7.785614788519896
90 8 2 0.0 10.303540311404085 2.773653560987565 7.576716496861657
91 8 1 0.0 0.17127012932969699 2.9126514914022583 7.7089861696722455
92 8 1 0.0 0.6556736062184267 2.8932285363493393 7.681697654817018
93 8 1 0.0 9.849524158113832 3.211773859658075 7.048370055124121
94 8 1 0.0 10.289659783517358 3.3996179532256323 7.1754691604840675
95 8 1 0.0 0.15133778681548193 3.2510127070818196 7.073300872731745
96 8 1 0.0 0.639458449701257 3.3087574509604414 7.089764902549434
97 9 5 8.861242189860825 7.037966717427259 7.740570898608269 11.2347935927633
98 9 6 -8.861242189860825 7.345270746493168 7.878951022965049 11.528131012869215
99 9 3 0.0 7.450746675851266 8.034381112766095 11.995244917035484
100 9 3 0.0 7.05384004731083 8.089843311012952 12.140294188236467
101 9 1 0.0 7.71331275704773 8.171345740991494 12.470882711213402
102 9 2 0.0 7.807847864092826 8.596478356716345 12.60437508754273
103 9 1 0.0 7.981601012044344 8.587408920363234 13.028415015448862
104 9 1 0.0 8.146241174640103 8.811657793809935 0.24072419910977771
105 9 1 0.0 7.005305758735134 8.480652958530639 12.463873584648649
106 9 1 0.0 7.157005351793425 8.45326361917062 12.934400961510228
107 9 1 0.0 7.309134499419132 8.779604022138178 0.015478231258210684
108 9 1 0.0 7.465873335656749 8.927252079909616 0.45763237803362067
109 10 5 8.861242189860825 1.6046256000642862 9.82825902955971 11.443165632001385
110 10 6 -8.861242189860825 1.6258928802351555 9.87833228673205 11.886642845442864
111 10 3 0.0 1.7055786297616604 9.6680945032026 12.337119636913847
112 10 3 0.0 1.7106937185286921 9.257931899713382 12.221401475610191
113 10 1 0.0 1.8104125021284905 9.583327271613394 12.88095411842776
114 10 2 0.0 1.497146293885926 9.477786810871969 0.00870134782144305
115 10 1 0.0 1.705215537658698 9.38742409161567 0.40697768445456184
116 10 1 0.0 1.6938774525329765 9.244649031347878 0.8709339029052803
117 10 1 0.0 1.510756393630491 8.94316529441378 12.568875839907234
118 10 1 0.0 1.755752662560057 8.814487868005829 12.97945823476177
119 10 1 0.0 1.5931410528547065 8.707360306221752 0.19737337879220185
120 10 1 0.0 1.6698574785706435 8.553652346489292 0.6581941187765779
121 11 5 8.861242189860825 9.261799237055998 2.040181791853189 3.8128934433627206
122 11 6 -8.861242189860825 8.859468280007086 1.8458809725968774 3.8158361917322
123 11 3 0.0 8.396173637716755 1.8195272657222878 3.6205347823312115
124 11 3 0.0 8.402350411180528 2.1723791995215156 3.381562862279151
125 11 1 0.0 7.881595927555024 1.6519537266134057 3.4754125689196846
126 11 2 0.0 7.494886498240995 1.8017243250207775 3.6638785528198228
127 11 1 0.0 7.137461391702872 1.629827587668958 3.4341372277137947
128 11 1 0.0 6.660120450433213 1.596081677407506 3.351823911802551
129 11 1 0.0 7.953195852353203 2.411956468761548 3.3559836150064113
130 11 1 0.0 7.5818775276005566 2.2457771289542823 3.073731806252282
131 11 1 0.0 7.1400386242128295 2.285917575794966 3.136612955335907
132 11 1 0.0 6.68073369834562 2.2139783935584534 2.9762039768068016
133 12 5 8.861242189860825 4.306676225642138 3.574104077398273 5.290537397214732
134 12 6 -8.861242189860825 4.09814511764883 3.7438690322947994 5.647365513006631
135 12 3 0.0 4.120407489163074 3.875764461090228 6.132738634051051
136 12 3 0.0 4.4956588485916456 3.700960645437033 6.234130258802499
137 12 1 0.0 4.016670518509597 4.1022249933674315 6.634620926895291
138 12 2 0.0 3.832798178112344 3.881568085567869 6.988169132140776
139 12 1 0.0 3.8387857430132986 4.153809540284264 7.356857362164356
140 12 1 0.0 3.7607251746502857 4.232861482411048 7.829536937310891
141 12 1 0.0 4.515904800037233 3.517240415316609 6.709133797776136
142 12 1 0.0 4.56415605181142 3.8124030623382748 7.103734587595741
143 12 1 0.0 4.4135097141099955 3.751803332346254 7.521371109695472
144 12 1 0.0 4.38528203803422 3.904099677786233 7.988143348296355
145 13 5 8.861242189860825 5.536228137056263 3.911010001532802 6.851851662158295
146 13 6 -8.861242189860825 5.1976106710517325 3.7521726378728024 6.60743281928045
147 13 3 0.0 4.70087437524505 3.6883463416420135 6.555873724130468
148 13 3 0.0 4.575644620348768 3.807580477178285 6.94542596414608
149 13 1 0.0 4.188933389029024 3.5901400561097527 6.350438771543655
150 13 2 0.0 3.9540465249762735 3.203980227581579 6.4070390355155435
151 13 1 0.0 3.53238487350682 3.2561205265138673 6.235093949907471
152 13 1 0.0 3.0825383440464167 3.0929236483787004 6.152792543192591
153 13 1 0.0 4.174538613765189 3.547175686449256 7.121762857594
154 13 1 0.0 3.7136056481983792 3.634710599945707 6.963530765419803
155 13 1 0.0 3.3682727360065794 3.3511372398526156 6.930090667750075
156 13 1 0.0 2.8938937146096295 3.2709646873787874 6.828089652324756
157 14 5 8.861242189860825 4.650186654804151 6.917867066629045 9.514791339682603
158 14 6 -8.861242189860825 4.272818380085944 6.830583466985121 9.73751633962858
159 14 3 0.0 4.053108754653773 6.698825679016931 10.170929133345096
160 14 3 0.0 4.399739615178922 6.587031051496604 10.39228682144025
161 14 1 0.0 3.682339222511397 6.6087548144049855 10.581232388283693
162 14 2 0.0 3.500857515660471 6.204194002228266 10.685586503125988
163 14 1 0.0 3.2481288588946278 6.244652361910957 11.065814880208212
164 14 1 0.0 2.9749629771857546 6.052694163609123 11.41837848272953
165 14 1 0.0 4.323338619714771 6.197734913987551 10.712291178841111
166 14 1 0.0 4.085256054386038 6.253661148494439 11.142811681490217
167 14 1 0.0 3.83566406942717 5.957129174876207 11.367666169094722
168 14 1 0.0 3.572537356990256 5.840338435408131 11.766403623613524
169 15 5 8.861242189860825 4.171413214658381 8.717641505735873 7.094517703021155
170 15 6 -8.861242189860825 4.6025962855041005 8.834712015886645 7.09722365952976
171 15 3 0.0 4.960396883470408 9.14391470091622 7.269999571104329
172 15 3 0.0 4.713587628409617 9.435719683097263 7.458640134823547
173 15 1 0.0 5.4516125043918215 9.374384498299744 7.409722346223546
174 15 2 0.0 5.65588360451775 9.712428952218373 7.182799216544508
175 15 1 0.0 6.026805978542931 9.848783367792551 7.414976599935765
176 15 1 0.0 6.405725205931606 10.14616231316814 7.4762515916563155
177 15 1 0.0 4.895768457881298 9.910758953247774 7.427993426504397
178 15 1 0.0 5.270833531363412 10.067626447995858 7.710619919541028
179 15 1 0.0 5.582000198123338 10.377068535887625 7.620022951224109
180 15 1 0.0 5.9682670328679155 0.09637690403796206 7.76470011293852
181 16 5 8.861242189860825 1.3597433001110737 5.539202689263525 8.619830813386884
182 16 6 -8.861242189860825 1.5594870075426877 5.757267843169879 8.954766190922319
183 16 3 0.0 1.8173970349848472 5.733528475881521 9.386504472917908
184 16 3 0.0 1.7780165512251451 5.3168616635145085 9.467053608607939
185 16 1 0.0 2.135363841135201 5.855776894217122 9.831346020023407
186 16 2 0.0 1.9777895548521829 5.938713605493195 10.250615251162824
187 16 1 0.0 2.330762437621247 5.980404120046414 10.540018631556777
188 16 1 0.0 2.5105330005838598 6.038332844959406 10.98733893086136
189 16 1 0.0 1.7393976913433036 5.205476599822813 9.962929938745548
190 16 1 0.0 2.1313957711821065 5.211244517741219 10.265358759042897
191 16 1 0.0 2.148149932310707 5.3030091194267985 10.703634319497596
192 16 1 0.0 2.4071360134669018 5.334850126914105 11.120503197286574
193 17 5 8.861242189860825 5.681615905640455 8.085317429718293 12.204109134285249
194 17 6 -8.861242189860825 6.006892037396685 7.823469751853196 12.045166066371316
195 17 3 0.0 6.429639108879324 7.783604414518839 11.774657744157302
196 17 3 0.0 6.434226813055857 8.17105765001976 11.597149542769586
197 17 1 0.0 6.9105579603266 7.6038265976347095 11.550317461307262
198 17 2 0.0 6.95426603161064 7.426178441854448 11.133153729413378
199 17 1 0.0 7.398495308668651 7.358859943308562 11.042540039964672
200 17 1 0.0 7.757281069031205 7.229384515827162 10.742077838535849
201 17 1 0.0 6.620469697921745 8.178309980896586 11.122752688778538
202 17 1 0.0 7.105814740975315 8.146877295409382 11.029956512740627
203 17 1 0.0 7.314124135725083 7.971993478285349 10.673852935818646
204 17 1 0.0 7.730687157499955 7.880898128506662 10.428813780992364
205 18 5 8.861242189860825 3.8141765179232605 1.8339264369615877 4.297500646425289
206 18 6 -8.861242189860825 3.9123085287485893 1.9541869206918596 3.878526671534399
207 18 3 0.0 3.8405902594074792 1.882421087413276 3.3853885174928404
208 18 3 0.0 3.6211057636190684 1.5173869191328966 3.4004494067761653
209 18 1 0.0 3.825212473156671 1.9443838692160738 2.8287416770351674
210 18 2 0.0 4.111333009862157 1.7453976353745955 2.535425535010763
211 18 1 0.0 3.9740065674015588 1.8320904918522785 2.1068137428324345
212 18 1 0.0 4.014776258637281 1.7745654451117052 1.6264000212112464
213 18 1 0.0 3.7196022493504897 1.201442695608471 3.0128038554499224
214 18 1 0.0 3.5352822142462386 1.2756963401924029 2.559293683848404
215 18 1 0.0 3.7100419393977204 1.1640705181545008 2.162071296200304
216 18 1 0.0 3.669343957308202 1.140640205241785 1.6725184431291102
217 19 5 8.861242189860825 0.5182695120302956 0.6795735740963318 9.880318331251333
218 19 6 -8.861242189860825 0.13339345129493196 0.7423579509155931 10.098401359091143
219 19 3 0.0 10.294006452687567 1.046153102914388 10.201906248617128
220 19 3 0.0 10.441528002600233 1.4068911407982672 10.02940790478537
221 19 1 0.0 9.79845399008053 1.2503205687362808 10.365230987509293
222 19 2 0.0 9.724759596951191 1.4801992916984636 10.751520711816976
223 19 1 0.0 9.293820874703723 1.6362703517678412 10.755509876391512
224 19 1 0.0 8.935548736161943 1.8933387439450704 10.95879676513743
225 19 1 0.0 10.305587251654785 1.8274587666485416 10.283247160736789
226 19 1 0.0 9.849391540629258 2.017490719841127 10.252713821112826
227 19 1 0.0 9.618999417225218 2.248590707149556 10.559795530546875
228 19 1 0.0 9.216628251956138 2.5015812832309194 10.686130462507574
229 20 5 8.861242189860825 3.6916554574987357 0.6348941862982107 7.405261431197222
230 20 6 -8.861242189860825 3.3615637530826774 0.5568954099243656 7.114422429872747
231 20 3 0.0 2.8765021387485534 0.4455528762970447 7.038283382991453
232 20 3 0.0 2.7654359911799937 0.3463733617659316 7.437630291144373
233 20 1 0.0 2.3696769389450205 0.374009431278186 6.810376998813278
234 20 2 0.0 2.197098416883122 10.522742761744725 6.676662562425603
235 20 1 0.0 1.7605128385156794 0.032119168741719134 6.549686426687997
236 20 1 0.0 1.3335409996104892 10.404955008738563 6.3993613103807965
237 20 1 0.0 2.4199820036329394 10.521428177230788 7.468843857759836
238 20 1 0.0 1.9406401224017011 0.048790685866350506 7.37070276586237
239 20 1 0.0 1.6376444452997505 10.31102017904054 7.206335980429866
240 20 1 0.0 1.1731548592993248 10.212722269377496 7.078061872705347
241 21 5 8.861242189860825 4.163505959959218 9.701347268673938 5.300873311324268
242 21 6 -8.861242189860825 3.7837608098312607 9.92120022687567 5.385075240374476
243 21 3 0.0 3.367544976408851 10.139792746086002 5.204906501385887
244 21 3 0.0 3.4637659995633254 10.138666030057017 4.789707195625699
245 21 1 0.0 2.858917128677687 10.368986728838337 5.152950766257668
246 21 2 0.0 2.7754509613694096 0.26700430320967783 5.119341665338444
247 21 1 0.0 2.329674592782338 0.33225085563134016 5.035029221631285
248 21 1 0.0 1.9527223685007287 0.6216083919750126 4.935290164997739
249 21 1 0.0 3.2902565168107394 10.545726913418667 4.536750123823619
250 21 1 0.0 2.8139098135326077 0.0453683692616611 4.41052438011765
251 21 1 0.0 2.571403176342025 0.4190248614455552 4.361962381632634
252 21 1 0.0 2.1478373678592524 0.6365204602736849 4.238856851154833
253 22 5 8.861242189860825 6.269959982070388 7.621407845595486 11.59365984068844
254 22 6 -8.861242189860825 6.695315251577364 7.705843653176659 11.48607194066109
255 22 3 0.0 7.132655117071106 7.533884464935513 11.305398302339581
256 22 3 0.0 7.045644253173582 7.1166811412806545 11.300846974534247
257 22 1 0.0 7.647715317584475 7.495052674557968 11.088288538548476
258 22 2 0.0 8.025065753637938 7.400775314858225 11.325381916383957
259 22 1 0.0 8.377150950089503 7.349577286811037 11.036423358938077
260 22 1 0.0 8.841912847142089 7.242095618741794 10.945799340460542
261 22 1 0.0 7.446763435586571 6.821224200207104 11.408550182539926
262 22 1 0.0 7.805800889199723 6.734313042346901 11.078857124737294
263 22 1 0.0 8.240337800226758 6.65151784333796 11.150338163521496
264 22 1 0.0 8.68466251956611 6.53653985861993 10.97363811237923
265 23 5 8.861242189860825 4.2979909636672184 9.754558820380627 9.420657750801968
266 23 6 -8.861242189860825 4.436600716448199 9.37509097957179 9.611506280682102
267 23 3 0.0 4.320547581791912 8.917434836130282 9.786325067606349
268 23 3 0.0 3.8954196334162074 8.945441876739682 9.774833702334405
269 23 1 0.0 4.345736645345631 8.388581027569675 9.969657355756729
270 23 2 0.0 4.312800620668072 8.261081871834325 10.405723893707467
271 23 1 0.0 4.300733703979783 7.803519320691654 10.429664922735304
272 23 1 0.0 4.255418468366758 7.391023852930229 10.681781287030645
273 23 1 0.0 3.6621445990994426 8.697754447454068 10.154340064970548
274 23 1 0.0 3.6142740618622153 8.204945141261835 10.15686082196323
275 23 1 0.0 3.594850028037373 7.92525666225546 10.506409062626215
276 23 1 0.0 3.5362999863479274 7.469637648263474 10.682052189353755
277 24 5 8.861242189860825 6.4042444282225786 4.7536210325517905 11.687855520687817
278 24 6 -8.861242189860825 6.663535379330853 5.116965684832755 11.707362787634368
279 24 3 0.0 7.124168035469561 5.315973132732172 11.666220647022467
280 24 3 0.0 7.352492868182425 4.956668532645338 11.64577086920635
281 24 1 0.0 7.554945093139442 5.669807507939708 11.609971832483847
282 24 2 0.0 7.826104643384186 5.807738353975966 11.949003426849211
283 24 1 0.0 8.16939513715884 6.057846230891059 11.776724704000332
284 24 1 0.0 8.584123956330235 6.30505807781001 11.828250929745135
285 24 1 0.0 7.8078555193768535 4.988562810252843 11.87252843687719
286 24 1 0.0 8.189753691876886 5.224959725634039 11.664131606142508
287 24 1 0.0 8.529931884823817 5.439908455201624 11.861267984394111
288 24 1 0.0 8.955245517574719 5.684117083633212 11.82469257113211
289 25 5 8.861242189860825 9.838149370217282 7.15753910834073 3.0405056032479134
290 25 6 -8.861242189860825 10.22259762463985 7.375171084762011 3.107345184649519
291 25 3 0.0 0.04884488491521444 7.6499833533926465 2.9136846620594685
292 25 3 0.0 10.507947991248134 7.6055227120441815 2.4993448072280273
293 25 1 0.0 0.4907358855679279 7.988273643998808 2.848695505625722
294 25 2 0.0 0.9152559891246601 7.849678164236707 2.758868913678649
295 25 1 0.0 1.1810938443824477 8.214956902860084 2.6815129224490346
296 25 1 0.0 1.606068102506292 8.413997164353006 2.556819310404152
297 25 1 0.0 0.37179088678062855 7.5849666348723295 2.2004752220881247
298 25 1 0.0 0.6335642215360542 7.9890370645563475 2.0848864514965797
299 25 1 0.0 1.0710729379717174 8.025543984656684 1.9952188500057269
300 25 1 0.0 1.4541790885350148 8.301945685406404 1.8584742761363158
301 26 5 8.861242189860825 3.3984245765441625 4.304213875105715 7.020200186843889
302 26 6 -8.861242189860825 3.0604638734666594 4.01505660681351 6.977746629858842
303 26 3 0.0 2.569952619879783 3.9405812439455548 6.892124118886043
304 26 3 0.0 2.4341884595824284 4.34387583398617 6.916036139134706
305 26 1 0.0 2.0731295379404275 3.7120605424564035 6.770154114895662
306 26 2 0.0 1.7545825225527134 3.6001356531883637 7.075924388311911
307 26 1 0.0 1.3748763897860865 3.465536070468233 6.857318632146979
308 26 1 0.0 0.9112175894781989 3.3213529462621896 6.857940113536016
309 26 1 0.0 1.969584061760798 4.3932844788634275 7.1197342561586785
310 26 1 0.0 1.5581329836605786 4.285982477327992 6.866054841113775
311 26 1 0.0 1.1643383770210565 4.1355034366782215 7.017938931907595
312 26 1 0.0 0.6971651851587681 4.008434156090308 6.931510302417338
313 27 5 8.861242189860825 3.5661839629976053 8.125969346991543 5.675724015469293
314 27 6 -8.861242189860825 3.277105499694615 7.9208058397838315 5.403743787334698
315 27 3 0.0 2.813409227162772 7.9023097208130215 5.2084933215783735
316 27 3 0.0 2.6225074562921193 8.190489641337916 5.4578105202919005
317 27 1 0.0 2.368297402436503 7.789281876497321 4.887507749428434
318 27 2 0.0 2.036554268121698 7.495955134099319 4.994282076793661
319 27 1 0.0 1.70455362529344 7.520935354897812 4.679268056013721
320 27 1 0.0 1.2673812457576485 7.394537252315854 4.509938575761237
321 27 1 0.0 2.136156056899161 8.081217535771236 5.564174549909318
322 27 1 0.0 1.7730022739291962 8.148565932096997 5.234413305600924
323 27 1 0.0 1.3890721234807057 7.922318724768103 5.187543787980277
324 27 1 0.0 0.9555680816969521 7.8649437330563154 4.962489000555717
325 28 5 8.861242189860825 8.471976337823454 2.9922083472483783 12.052218667245036
326 28 6 -8.861242189860825 8.590615123846531 2.78483310969403 12.429779280169349
327 28 3 0.0 8.581016757616917 2.7748765928694694 12.93305636398443
328 28 3 0.0 8.423185858283068 3.1639430285732093 13.006315725938395
329 28 1 0.0 8.611395558089537 2.6152262629214293 0.2836117066945393
330 28 2 0.0 8.953784232326925 2.714669882817071 0.5671179750046896
331 28 1 0.0 8.847665803967617 2.571638899063515 0.9894487557992027
332 28 1 0.0 8.9449241326511 2.534171072717591 1.4636909113890333
333 28 1 0.0 8.60973610527949 3.3866168392404594 0.23947762327610972
334 28 1 0.0 8.461981195873122 3.2578206844846793 0.6941632202409895
335 28 1 0.0 8.691251072094184 3.269132694203945 1.078993407756478
336 28 1 0.0 8.703916993558881 3.208398305488332 1.566864507249247
337 29 5 8.861242189860825 6.621244762201135 10.284887222270076 0.7187526688933896
338 29 6 -8.861242189860825 6.458697026389073 9.877942959236764 0.8059665869235975
339 29 3 0.0 6.342475696758593 9.528792456469535 1.1495733576823888
340 29 3 0.0 6.527593481836871 9.704329862484634 1.4909942753585748
341 29 1 0.0 6.129828678190332 9.082562814461395 1.4133761622875411
342 29 2 0.0 6.357814324629655 8.69854311488121 1.5030770948753251
343 29 1 0.0 6.097383518429507 8.4242691269718 1.761982186164919
344 29 1 0.0 6.031631029384593 8.018463518653306 2.0203754157386373
345 29 1 0.0 6.726411942586968 9.364885290337197 1.8150930035997157
346 29 1 0.0 6.444702839248506 9.09910990813504 2.1235770098827085
347 29 1 0.0 6.5153836721165606 8.687629991091796 2.2862896666266757
348 29 1 0.0 6.37721676108671 8.318597627384282 2.5805553977140816
349 30 5 8.861242189860825 0.8058172387229878 1.2079590117076864 0.5058860103400712
350 30 6 -8.861242189860825 1.23738597758947 1.0931212370840415 0.492016032538489
351 30 3 0.0 1.7008140845441817 1.1492152925266774 0.6806080010401726
352 30 3 0.0 1.6327088908579008 1.487898141862972 0.9302193558460964
353 30 1 0.0 2.240250793805106 1.0777140954725353 0.8141264759857658
354 30 2 0.0 2.5884442412812763 1.3027887077059803 0.6254532557934047
355 30 1 0.0 2.975894243591833 1.1951071189754172 0.8453837964544821
356 30 1 0.0 3.452470493869141 1.2496869313890375 0.920648425573322
357 30 1 0.0 2.0291932697579105 1.807040645071408 0.9574146399417945
358 30 1 0.0 2.430157259648789 1.7061516609029868 1.2298265458951132
359 30 1 0.0 2.855362884128899 1.8305522546630573 1.1626582489676347
360 30 1 0.0 3.3228156838835368 1.8420991466008907 1.3150454221405063
361 31 5 8.861242189860825 2.7281056001882593 8.875053883872763 2.565835673618438
362 31 6 -8.861242189860825 2.566304482514182 8.659716206271254 2.9223209468852893
363 31 3 0.0 2.2111296568769467 8.359711053343768 3.115522487783606
364 31 3 0.0 1.9359650767912955 8.3608393707889 2.790048373520004
365 31 1 0.0 1.9220643698249558 8.009346547363265 3.4435736124590366
366 31 2 0.0 1.5788982491445291 8.13065807913467 3.717462947467819
367 31 1 0.0 1.3902661968456722 7.7549629711164885 3.9000920968777355
368 31 1 0.0 1.0514240777743544 7.5368834643901215 4.171009039384337
369 31 1 0.0 1.4471430962224117 8.342551156486065 2.933261487700397
370 31 1 0.0 1.2346273930314082 7.924252416039311 3.0914455401796506
371 31 1 0.0 0.900244451102909 7.871305826675121 3.3849955661572646
372 31 1 0.0 0.5848520126321597 7.575700257077362 3.619542487343095
373 32 5 8.861242189860825 10.063215517455887 9.879556136564865 2.9688199500499106
374 32 6 -8.861242189860825 9.844164715750908 10.250147139464714 2.849192520195283
375 32 3 0.0 9.424322663169697 10.526521011758604 2.877988658003048
376 32 3 0.0 9.169050422601222 10.243699560821803 3.069034014855287
377 32 1 0.0 9.052559022266612 0.3966341107841529 2.856378326713896
378 32 2 0.0 8.734229875946225 0.44738323394376345 2.5345306561357233
379 32 1 0.0 8.460411554736142 0.7977467670628247 2.6456665782648137
380 32 1 0.0 8.071539842359186 1.0770131813989492 2.5646869278287987
381 32 1 0.0 8.68304936178215 10.26935401575561 2.9175869899003373
382 32 1 0.0 8.377505802301837 0.07827851938431078 3.0726135115836883
383 32 1 0.0 8.028529786596364 0.2626564774615628 2.8604639889183936
384 32 1 0.0 7.646822686897218 0.5727582455476223 2.8624349604196158
385 33 5 8.861242189860825 2.2337311536891526 0.8993943086689264 9.144589340974916
386 33 6 -8.861242189860825 1.9822165057790317 1.1421713039578136 9.42285428590453
387 33 3 0.0 1.6214522381608751 1.1525826837057636 9.773881108721032
388 33 3 0.0 1.484515968229958 0.7501284553217542 9.743397173232246
389 33 1 0.0 1.2793524303824606 1.3060941372146844 10.190214536144026
390 33 2 0.0 0.8482277575391436 1.4433222091941214 10.13734852928063
391 33 1 0.0 0.6546051416363703 1.4977856384102215 10.549205651407286
392 33 1 0.0 0.27070053328949684 1.5951702234943472 10.830100893314137
393 33 1 0.0 0.9832926168100353 0.6966070124633754 9.818908700091773
394 33 1 0.0 0.7817135527049273 0.7147666281946555 10.27078817970096
395 33 1 0.0 0.3732495163002053 0.8534902809736499 10.392030870421396
396 33 1 0.0 0.03377831371043727 0.9173537180723667 10.74209952836393
397 34 5 8.861242189860825 5.466010994372612 7.129066886978029 8.156090645405524
398 34 6 -8.861242189860825 5.066427332445981 7.286101956579153 8.032379080997796
399 34 3 0.0 4.690831527541918 7.611122356377462 8.114650673959071
400 34 3 0.0 4.8102621848491465 7.758731396035237 8.496223875056998
401 34 1 0.0 4.236182805037971 7.933928544837459 8.059675484576175
402 34 2 0.0 3.8270369857294044 7.84193443097678 8.237528298758132
403 34 1 0.0 3.5471000798223185 8.197864645437294 8.166596763439049
404 34 1 0.0 3.1210666103935396 8.42327699102549 8.22536239991809
405 34 1 0.0 4.420723360919026 7.866121694650263 8.806897678196936
406 34 1 0.0 4.1452501268056166 8.273931348538914 8.752448267702553
407 34 1 0.0 3.7134143796146657 8.338126963510703 8.85336269380677
408 34 1 0.0 3.3255967208654567 8.638910224386867 8.884893548512526
409 35 5 8.861242189860825 10.202082331692907 0.6605066682430109 9.752813971639027
410 35 6 -8.861242189860825 10.312787161901284 1.0272306386415397 9.522836500491945
411 35 3 0.0 0.12489596935399505 1.3008568929846054 9.302490619612614
412 35 3 0.0 0.4673333671069424 1.0939884364970323 9.449433767191142
413 35 1 0.0 0.4032348646296826 1.6718665402642716 8.988148658315122
414 35 2 0.0 0.5870784944546313 2.059225293360232 9.141932786650464
415 35 1 0.0 0.827654635300535 2.257112954544139 8.8057098463797
416 35 1 0.0 1.1229057043996709 2.6057343008605467 8.641214844217828
417 35 1 0.0 0.867278403025803 1.396366223356006 9.541101786702034
418 35 1 0.0 1.1508333737312877 1.5755071188359506 9.17687099039875
419 35 1 0.0 1.379696906803515 1.9604164604254237 9.16095895355955
420 35 1 0.0 1.690986414288628 2.259095358190791 8.924829624972793
421 36 5 8.861242189860825 0.3740294615067883 1.633488668540297 9.593042430812702
422 36 6 -8.861242189860825 0.8179112613739264 1.6187042811500176 9.641848544853234
423 36 3 0.0 1.2640307222595255 1.8384604004877323 9.563338936602142