Lipid soup setup

5632 atoms
2816 bonds
2048 angles
0 dihedrals
0 impropers

6 atom types
2 bond types
3 angle types
0 dihedral types
0 improper types

0 10.546658238513277 xlo xhi
0 10.546658238513277 ylo yhi
0 16.877637130801688 zlo zhi

Masses

1 72.000000
2 72.000000
3 72.000000
4 72.000000
5 72.000000
6 72.000000

Atoms

1 1 5 1.0 1.3574100358524177 0.0679266035935957 7.850406058983734
2 1 6 -1.0 0.9741511721604957 0.1988245215331198 7.661699817401194
3 1 3 0 0.7442839209852213 0.4456354678813193 7.287902429027762
4 1 3 0 1.0825488826010945 0.639146544991591 7.115332161981899
5 1 1 0 0.3660702039338912 0.6374328230235875 6.921706134091734
6 1 2 0 0.161712658209626 1.043842730870694 6.945451075961375
7 1 1 0 10.455459421277695 1.108890364811984 6.568772350169448
8 1 1 0 10.169486846386809 1.3849803094831352 6.289912759139053
9 1 1 0 0.9823558723421677 1.103385627466238 6.930305627286814
10 1 1 0 0.7445511227696722 1.1700704161261892 6.501165795922947
11 1 1 0 0.4772748840411707 1.5073446106739143 6.376280084839395
12 1 1 0 0.20514323110049565 1.7268570689366771 6.030410246034813
13 2 5 1.0 4.315669766560693 4.073289868616034 13.923481779176441
14 2 6 -1.0 4.6306621866048685 3.7564425943024253 13.927868942985073
15 2 3 0 5.044304982418472 3.568025703417557 14.144381752434663
16 2 3 0 5.137766700777686 3.891009495056665 14.40629127083637
17 2 1 0 5.463269605983178 3.231924393795413 14.303868809908904
18 2 2 0 5.890080206330704 3.253104569604543 14.146138173890375
19 2 1 0 6.1536528437724725 2.9612591087857534 14.381590851405242
20 2 1 0 6.5861076699330345 2.766569898760899 14.485742555559414
21 2 1 0 5.637757492695876 3.9657914508010594 14.471162301620407
22 2 1 0 5.912565655296292 3.6722076770483163 14.760035970164546
23 2 1 0 6.3462463736625665 3.5658201569776096 14.722758081007127
24 2 1 0 6.743592472341452 3.337462208460907 14.901184610630402
25 3 5 1.0 3.5319276473087466 0.5826121158525271 6.308024089339543
26 3 6 -1.0 3.4368478916243808 0.31222624387094544 6.650782003067723
27 3 3 0 3.0862997055698527 0.10111997901224748 6.944089347241473
28 3 3 0 2.7469569178680855 0.3261377230842888 6.818138144082597
29 3 1 0 2.81437213190768 10.317360910262872 7.30576788596575
30 3 2 0 2.7124131316214823 10.428303855519024 7.735640968530431
31 3 1 0 2.4501966810648548 10.100153899899587 7.919059645992426
32 3 1 0 2.1828026070866153 9.922101186636054 8.283156175979594
33 3 1 0 2.4121503350319324 0.4203019660410982 7.190735823867198
34 3 1 0 2.100851779070007 0.07383768174297478 7.3587080346125395
35 3 1 0 1.9272322168917213 0.025688755295563886 7.768982137427351
36 3 1 0 1.6257980542914248 10.334871967379472 8.076570106469251
37 4 5 1.0 2.1079594232534085 4.307702077532809 16.09659784246797
38 4 6 -1.0 2.415401492210551 4.605595299116094 15.968649923760328
39 4 3 0 2.776675444048745 4.7334845559109455 15.642146395946853
40 4 3 0 2.815472467285943 4.3633657953506235 15.434403496287516
41 4 1 0 3.1546027352520705 5.01687128708481 15.340825154099328
42 4 2 0 3.6044889577792762 5.009525105196526 15.411841084333302
43 4 1 0 3.8149054380826635 5.241087187254502 15.07689903184187
44 4 1 0 4.217299146322635 5.395695909514254 14.853417289370649
45 4 1 0 3.292089178010872 4.258428798473004 15.287379276218255
46 4 1 0 3.5027166005832053 4.481140798046305 14.898542023723763
47 4 1 0 3.9349294571960325 4.575865878520586 14.827788107667924
48 4 1 0 4.2879154711460306 4.750787369036831 14.533389317978225
49 5 5 1.0 1.4990012381301674 8.771736448771255 9.701338600022194
50 5 6 -1.0 1.1534513143118899 8.972909891403711 9.900728076324533
51 5 3 0 0.7043927259993963 9.195943321122918 9.855103987890375
52 5 3 0 0.6901196746171442 9.23517425845182 9.430949025818515
53 5 1 0 0.19914950951405358 9.4154151705235 9.957539172990318
54 5 2 0 0.10895105488049703 9.860802526887051 9.988990461172806
55 5 1 0 10.203053082211925 9.921670914955019 10.028616041448677
56 5 1 0 9.812558086346998 10.208861594683578 10.056967660968207
57 5 1 0 0.4563610220586488 9.65886033998148 9.27082913256662
58 5 1 0 10.510138961426167 9.705734315541154 9.276378542452864
59 5 1 0 10.262578451893079 10.075730930392892 9.327400204984475
60 5 1 0 9.821158896253948 10.292281501797644 9.338442269244393
61 6 5 1.0 3.943725933336622 7.441765337325448 4.5877913035895554
62 6 6 -1.0 3.91352765714401 7.565550504356808 4.159542586522538
63 6 3 0 3.860690875700649 7.938156122468136 3.8250991505971923
64 6 3 0 3.7615288930943747 8.255774475048517 4.091436721359119
65 6 1 0 3.8549093639211183 8.24335427170347 3.3552563774750594
66 6 2 0 3.482030553697393 8.345863056312487 3.114532087219063
67 6 1 0 3.593422988708532 8.637203502491008 2.778682803461823
68 6 1 0 3.4725605817408667 8.925915891910929 2.407460393813235
69 6 1 0 3.428952785324721 8.590384617711717 3.898510392127936
70 6 1 0 3.562106973290639 8.931740139668339 3.565485881501874
71 6 1 0 3.317782656479757 9.117780739827596 3.2391709504355877
72 6 1 0 3.2772967367591668 9.44383887346068 2.873227942501864
73 7 5 1.0 4.701529268964711 4.048318376643222 13.624181764824868
74 7 6 -1.0 4.272420155357971 3.9337173348949963 13.575564514991157
75 7 3 0 3.8500445477667355 3.9645904351756536 13.303305848010721
76 7 3 0 3.9660865966168473 4.2715319859850345 13.031329110816074
77 7 1 0 3.3411942783515 3.8749324940883634 13.08659307832177
78 7 2 0 2.968983368355179 4.119046129783287 13.18335264272058
79 7 1 0 2.6242942486230274 3.9839735898401507 12.913117391043366
80 7 1 0 2.1691387712944623 4.026752736702274 12.749495636073446
81 7 1 0 3.5855606892565044 4.58312309063315 12.897529257024397
82 7 1 0 3.2368496620032383 4.448483712153821 12.572826605271228
83 7 1 0 2.808471424242299 4.577791375238703 12.54919348000446
84 7 1 0 2.375099648588527 4.5687189116919615 12.316870653464788
85 8 5 1.0 6.022477862859928 8.413960780738838 8.807516015051966
86 8 6 -1.0 6.438937841095445 8.55923355107441 8.736181760597084
87 8 3 0 6.741194100021142 8.929850634853308 8.57881843861119
88 8 3 0 6.449372115248916 9.186934023061081 8.404467416242932
89 8 1 0 7.183967444789582 9.259203697232376 8.481813835141434
90 8 2 0 7.415543457994116 9.277415913490843 8.089977508032296
91 8 1 0 7.725871259001452 9.613975722610196 8.11248133803876
92 8 1 0 8.07181354629286 9.888819874801849 7.911102916857339
93 8 1 0 6.613945753936248 9.434950887046206 7.990710801587512
94 8 1 0 6.91727626066121 9.82512559096913 8.020930975801189
95 8 1 0 7.227102265703656 9.964781142783464 7.728884602126753
96 8 1 0 7.564620456703958 10.29653324584125 7.595133661494123
97 9 5 1.0 9.24428136301812 1.4047166815290937 13.207070398504145
98 9 6 -1.0 8.960730072327529 1.445076358630146 13.550001046221045
99 9 3 0 8.50129650713929 1.5722437479689368 13.711952700186513
100 9 3 0 8.35276760656123 1.757657857994825 13.358101047956335
101 9 1 0 8.034899016267984 1.6313470582045904 14.016766982756023
102 9 2 0 7.918731206344543 2.006854087337061 14.24697200651708
103 9 1 0 7.4971717359155985 1.9550358430170165 14.41926464711649
104 9 1 0 7.110246915873332 2.1260007258600204 14.657652639929928
105 9 1 0 8.043341227287277 2.152868002670514 13.446733101400628
106 9 1 0 7.574332829552562 2.092293743299867 13.593432919999293
107 9 1 0 7.3221671679654925 2.3598217530703485 13.849612845118568
108 9 1 0 6.888114706759814 2.4622655456554012 14.056907397728075
109 10 5 1.0 4.157863759557313 4.576744739471609 2.56341818341358
110 10 6 -1.0 3.914998518956534 4.646063543586661 2.1948492679642184
111 10 3 0 3.6783204951689816 4.450309450435147 1.795922041486235
112 10 3 0 3.8226920017961947 4.050035872494718 1.8201738283606264
113 10 1 0 3.346958484498954 4.372844446605902 1.3508041259889156
114 10 2 0 3.485229974282709 4.382885829503746 0.9168974451258396
115 10 1 0 3.137809542283853 4.260926060741939 0.6439375033930692
116 10 1 0 2.956412371089906 4.156918952467316 0.2057067076255117
117 10 1 0 3.896044715769361 3.829475330334876 1.366561868489806
118 10 1 0 3.5201220237746385 3.6609562948427667 1.0918940342952674
119 10 1 0 3.487791327721969 3.6312514811534715 0.6459576475023187
120 10 1 0 3.2358310074457424 3.4909733768595625 0.2475792448227796
121 11 5 1.0 0.7659790801966528 0.8919309261977545 9.699599371006416
122 11 6 -1.0 1.1238528808010018 0.7038073638872969 9.889777012374047
123 11 3 0 1.4830966546428468 0.7279689310355896 10.24168497418193
124 11 3 0 1.424165525956657 1.1293450375788012 10.37235463958913
125 11 1 0 1.8951789715296297 0.6029454077944252 10.60013838869463
126 11 2 0 2.3354226094282873 0.7015614612630298 10.537247568671637
127 11 1 0 2.5708310914167964 0.5932150986743652 10.915303363335775
128 11 1 0 2.982637084606022 0.5819998338276838 11.172322203998744
129 11 1 0 1.8545093745207974 1.3685396588019918 10.504193513688607
130 11 1 0 2.0846942922347163 1.27888164884124 10.933303406056263
131 11 1 0 2.521726035068327 1.3028446945110943 11.029303089011767
132 11 1 0 2.885557492090377 1.2741382673924664 11.35895428828577
133 12 5 1.0 5.578086960593422 8.80179828139768 14.364916270905576
134 12 6 -1.0 5.390480835477361 8.453137192154044 14.571969534096265
135 12 3 0 5.41086050273805 8.116533102745107 14.945816347792054
136 12 3 0 5.807752801514781 8.190020866848844 15.08266030998404
137 12 1 0 5.2827490267157735 7.725111729944209 15.325695705294248
138 12 2 0 5.3896032298749414 7.283550536919111 15.292518393218025
139 12 1 0 5.27498446961303 7.06992420314128 15.681502455706616
140 12 1 0 5.2632741942321415 6.674472822764811 15.963015719793285
141 12 1 0 6.049887106852131 7.772586845948732 15.246706644648619
142 12 1 0 5.952536173307944 7.567606271877459 15.686780178063609
143 12 1 0 5.980573589161442 7.137721324147068 15.810067427836705
144 12 1 0 5.948759725525661 6.794297350014147 16.16066000238843
145 13 5 1.0 6.831761091379906 1.0961021306316805 8.820835156808345
146 13 6 -1.0 6.968305475550321 1.4327785505718107 8.56076538436381
147 13 3 0 6.906141489344453 1.9093994019061116 8.410941197907375
148 13 3 0 6.529692878291242 1.990168225570165 8.593733590116898
149 13 1 0 6.982171669174611 2.419145094628104 8.191145137577358
150 13 2 0 6.806634957759748 2.5624219894606446 7.795982593416185
151 13 1 0 6.897425977207175 3.00847105299635 7.7423216647615325
152 13 1 0 6.855108855615194 3.4255016381853096 7.497243320379567
153 13 1 0 6.229982140047782 2.299090527099459 8.320728336426932
154 13 1 0 6.306530921753257 2.787750237273593 8.298124653257881
155 13 1 0 6.215084209555318 3.0724063937583037 7.964365335286001
156 13 1 0 6.202720841121502 3.5324513330029133 7.790949354892366
157 14 5 1.0 6.403361514232342 0.41700868452060597 2.2169724426712127
158 14 6 -1.0 6.8089367820664854 0.26727494272187946 2.1041886857744476
159 14 3 0 7.304622800356727 0.26828051379486806 2.1923558228117423
160 14 3 0 7.324060112724804 0.5903434785145052 2.470829979482607
161 14 1 0 7.850057992364715 0.14052194461787926 2.2028327952410325
162 14 2 0 8.172390590148392 0.34953559657097 1.9580679455211643
163 14 1 0 8.58419670545162 0.1918525648072369 2.0831041660739507
164 14 1 0 9.069042957286737 0.19935476665804625 2.0578757753858903
165 14 1 0 7.747557437571221 0.8712824349184849 2.43191080470345
166 14 1 0 8.184070929500484 0.7149684288259709 2.605637192117392
167 14 1 0 8.596420205882685 0.8076550504421806 2.4567608159861716
168 14 1 0 9.084049952104067 0.7669917065845726 2.5060662348149543
169 15 5 1.0 2.365599393275456 3.6191354904546817 8.168179943583473
170 15 6 -1.0 2.6033569156779066 3.715046430656908 7.802250825826896
171 15 3 0 2.8014848160398507 4.0667377016301725 7.501356045256766
172 15 3 0 2.609919298388707 4.41131766000119 7.6632743055788275
173 15 1 0 3.1065898256483218 4.336875528668531 7.116819889420886
174 15 2 0 2.956942551079737 4.462733415880935 6.7054072894731505
175 15 1 0 3.2779605232633413 4.715625143805794 6.49786089215494
176 15 1 0 3.4312703193685574 4.989068670453729 6.127059885143902
177 15 1 0 2.4957425199446606 4.7661920992197615 7.31568377176589
178 15 1 0 2.8392647217712716 5.066463972401061 7.12336046623778
179 15 1 0 2.8535854428017884 5.25491414938256 6.717074411007817
180 15 1 0 3.0736982808159987 5.556877758475317 6.397331360130243
181 16 5 1.0 0.2688165097739519 4.7659298050888905 15.664296927904402
182 16 6 -1.0 0.5281025786099162 4.539441343980993 15.949086988517658
183 16 3 0 0.6821953771695743 4.468913902412975 16.423175981611667
184 16 3 0 0.5078047972702119 4.81327411581734 16.60388067816411
185 16 1 0 0.9035712573964255 4.255106163425635 0.013738101165142041
186 16 2 0 1.3032041084244645 4.378555140374535 0.19415089567984015
187 16 1 0 1.3577745188700783 4.170644781848993 0.5989689099517357
188 16 1 0 1.6063089885095367 4.095206572266406 1.0092229002844182
189 16 1 0 0.7889437188512861 5.014221549086397 0.1009066218409819
190 16 1 0 0.8130301216998488 4.8091896204246325 0.5509518509545921
191 16 1 0 1.1504133857180798 4.814899679544621 0.8457854299695458
192 16 1 0 1.3269494578018763 4.700405237077781 1.2903001531868141
193 17 5 1.0 5.785217009557891 10.482220810320806 4.486879485248028
194 17 6 -1.0 5.376282902404741 0.11118081859055629 4.526411681433486
195 17 3 0 4.879902543704525 0.034693009154064924 4.561557640791865
196 17 3 0 4.867813639052686 10.16568560105629 4.468143793309912
197 17 1 0 4.330477332111347 0.09677427862671628 4.652163493123172
198 17 2 0 4.018068420914467 0.16569283834431303 4.327901644787042
199 17 1 0 3.5998701819018093 0.1549160935686551 4.515188500215327
200 17 1 0 3.1158600704049944 0.16577278188550437 4.47797308760827
201 17 1 0 4.454263323318924 10.025375219643973 4.205312066215648
202 17 1 0 4.010849448940714 9.974413829603657 4.419662311270168
203 17 1 0 3.603535557938503 10.034633529297537 4.242868949135348
204 17 1 0 3.1142904112815706 10.014257116708269 4.288599568441468
205 18 5 1.0 2.9371961642206714 5.936030432917414 15.299335485662676
206 18 6 -1.0 3.082494474315844 6.3197724885599404 15.476146409946976
207 18 3 0 3.3842748216308767 6.5510191340984045 15.80619594389089
208 18 3 0 3.5145250318759333 6.211977617804386 16.029211529108196
209 18 1 0 3.68826198027965 6.9315145483979395 16.083227737560676
210 18 2 0 3.5670093822219604 7.127423778348269 16.47618094474909
211 18 1 0 3.9130948205715246 7.385324282188922 16.6304355104468
212 18 1 0 4.114588123766863 7.670481916148431 0.09022128226129311
213 18 1 0 3.585174728484858 6.306141711167723 16.52512798117754
214 18 1 0 3.982228949401293 6.549792911844948 16.69288075427491
215 18 1 0 4.020205812525066 6.812463132445259 0.17628243580034209
216 18 1 0 4.300240612986131 7.086025141648835 0.47395950732370906
217 19 5 1.0 8.144781896477761 3.3177212651193555 4.962461869135522
218 19 6 -1.0 7.735606624488766 3.3678805619786742 4.790150207130757
219 19 3 0 7.448953253744913 3.5341122607484294 4.41110410001412
220 19 3 0 7.742329004380471 3.7554577829256135 4.195263772362454
221 19 1 0 7.025075865566222 3.6249723881384357 4.056133728473463
222 19 2 0 6.76130364324214 3.9963363684232873 4.0533317947950644
223 19 1 0 6.48022158768156 3.980236534003427 3.6916469251489126
224 19 1 0 6.139088375343589 4.177478145434895 3.4079348866172756
225 19 1 0 7.560280945599284 4.17582087172951 3.971780525992243
226 19 1 0 7.290840324125904 4.157711612094886 3.556771175451327
227 19 1 0 6.967360812623034 4.435102289525008 3.4181987083366847
228 19 1 0 6.644903989282953 4.571325703528928 3.0727539518009506
229 20 5 1.0 6.199990013443751 6.721957968858437 1.6371147955031577
230 20 6 -1.0 5.991224564072265 6.3297786525248 1.6844860749912174
231 20 3 0 5.700126096169604 6.0320429345852835 1.9674952766132376
232 20 3 0 5.703681359988215 6.25683313255583 2.32958220717714
233 20 1 0 5.358623878889098 5.625663405266817 2.1468370770213587
234 20 2 0 5.489253294833425 5.261180328996967 2.3868014176181274
235 20 1 0 5.119084266112957 5.023703327495099 2.5158821500737893
236 20 1 0 4.910290640477341 4.6583047878792785 2.758075815945631
237 20 1 0 5.696416145938356 5.969664415189057 2.7506198871698593
238 20 1 0 5.283899746695278 5.747440503891935 2.910637725001154
239 20 1 0 5.240321515151626 5.3643575737001985 3.1389693199694295
240 20 1 0 4.9532175675920715 5.039622540907675 3.3713177286845557
241 21 5 1.0 5.253785525338681 1.1336742168156304 0.5614404790967384
242 21 6 -1.0 4.977979898182885 0.9909439790600667 0.24020691548457052
243 21 3 0 4.640946684096332 1.1056361179646954 16.76184768418274
244 21 3 0 4.577722077097053 1.5162334901865988 16.857045716115657
245 21 1 0 4.299874833889183 1.0888226862954444 16.317641798199674
246 21 2 0 3.8487972742717003 1.0282203226165858 16.33638294760955
247 21 1 0 3.6712203034423534 1.078756176171791 15.91686558385212
248 21 1 0 3.291893316003083 1.1021419361470208 15.614652438078297
249 21 1 0 4.099350026218078 1.6744329409939094 16.780074953841744
250 21 1 0 3.922714470608463 1.7681350095932682 16.327108335142803
251 21 1 0 3.503093878188553 1.7301333256289233 16.17459164306435
252 21 1 0 3.1772351270657806 1.7888949976279467 15.810956604213473
253 22 5 1.0 2.894964464846854 10.32899148308947 2.718034708943777
254 22 6 -1.0 3.2869753354892444 10.393205746058394 2.513497003712965
255 22 3 0 3.689522759007811 0.14079895084760907 2.443849721727711
256 22 3 0 3.5533806024340815 0.491671502487007 2.6438596814776143
257 22 1 0 4.196769653414955 0.336259207637022 2.3081020007142388
258 22 2 0 4.28876615647495 0.5946963237225797 1.9444514233611379
259 22 1 0 4.725847279099097 0.7315617841098014 1.9620641902100064
260 22 1 0 5.099092269056832 0.9890758362909997 1.7884458356257311
261 22 1 0 3.7125446175453316 0.9259479322088994 2.4297051054709575
262 22 1 0 4.175495385815223 1.0925811651533184 2.4851028189407085
263 22 1 0 4.422268505714522 1.338655012130559 2.2034335091845616
264 22 1 0 4.837648282704126 1.5836428319016345 2.106955997341779
265 23 5 1.0 9.251665994442256 9.896310768694889 11.08365140632572
266 23 6 -1.0 8.810199893048626 9.833193196860927 11.056164671750135
267 23 3 0 8.347993026760307 10.03170040729763 11.077111846154798
268 23 3 0 8.445863185924452 10.417297550507099 11.230038277433128
269 23 1 0 7.796757303344867 10.119348019615028 11.028238121967425
270 23 2 0 7.494121021896879 10.076281485638548 11.365953085742673
271 23 1 0 7.083101063627646 10.217650930035688 11.220489875092472
272 23 1 0 6.614546366472848 10.317895850543199 11.299078006095185
273 23 1 0 8.095069388917826 0.06210284191136317 11.546387470945783
274 23 1 0 7.6684217151951914 0.2523788534798239 11.382296774227381
275 23 1 0 7.268701438515811 0.26434262180542056 11.584453840857089
276 23 1 0 6.798704979547749 0.4091437651791452 11.586259026342903
277 24 5 1.0 5.4062990299256946 10.38347643799843 7.740867503162559
278 24 6 -1.0 5.228419074286809 10.088364357858868 8.025295435456737
279 24 3 0 5.302312237970263 9.735942597291835 8.377172952491646
280 24 3 0 5.723793988562048 9.686709582786754 8.337430500497938
281 24 1 0 5.2339109252453655 9.372052026179022 8.79769225086323
282 24 2 0 5.189524863336103 8.921333485308818 8.748932468468796
283 24 1 0 5.186502834019272 8.723427881761403 9.162340875471852
284 24 1 0 5.17868689055361 8.329569182014183 9.446212110909773
285 24 1 0 5.883520277123623 9.208563202667078 8.412629805439622
286 24 1 0 5.918564258634876 9.010808805859877 8.865204741471356
287 24 1 0 5.871897932828461 8.58312745803283 8.990495721538107
288 24 1 0 5.889043002730655 8.240246020680447 9.342640106353063
289 25 5 1.0 3.957167720187082 0.3974542156888283 5.836745388293794
290 25 6 -1.0 4.017772361838669 0.01134894525787189 5.620224108306686
291 25 3 0 3.9254769156236473 10.06377571137349 5.593844452232739
292 25 3 0 3.74651774158681 10.006945933940036 5.976459413668597
293 25 1 0 3.8714871334082397 9.53460553818107 5.417788782485739
294 25 2 0 4.159325467195123 9.195556672333684 5.516225575025533
295 25 1 0 3.9890980602598805 8.800832543207783 5.357172868756937
296 25 1 0 4.007738264835608 8.318252457075832 5.30679781649754
297 25 1 0 3.854808825636867 9.556956152989397 6.189939205916428
298 25 1 0 3.6377786204613947 9.136853039593177 6.0430711733934706
299 25 1 0 3.799916443619357 8.719146407661896 6.047476496507396
300 25 1 0 3.7335845195251256 8.237816925763518 5.971389001076883
301 26 5 1.0 1.9555737122764831 3.8655395455280006 16.21007684268199
302 26 6 -1.0 2.316123055323081 3.8269801649624524 15.949023184346004
303 26 3 0 2.8094640858634983 3.9062157052040263 15.887253930643906
304 26 3 0 2.881374353152169 4.156851779423853 16.224389941843825
305 26 1 0 3.3390180640979765 3.889200294891303 15.705005123849034
306 26 2 0 3.5359509358276453 4.205996429481758 15.443562022781165
307 26 1 0 3.981492904571568 4.108992869936713 15.397033159901843
308 26 1 0 4.4266168390515865 4.217132614486783 15.235976892561649
309 26 1 0 3.2323394325654458 4.517227079365979 16.142264794860854
310 26 1 0 3.7168855031383075 4.4157343392567805 16.133704186331403
311 26 1 0 4.043388959098062 4.618084886443206 15.902973476998625
312 26 1 0 4.521302204285799 4.6644221206273935 15.79658225526592
313 27 5 1.0 9.780559634585533 10.006408252706244 2.0763388824201927
314 27 6 -1.0 10.030474411195723 10.03560237083992 2.445556941336341
315 27 3 0 10.307481511636976 9.800124978746128 2.79383348098954
316 27 3 0 10.211182921337704 9.396486551804049 2.696607866608641
317 27 1 0 0.11971515325869397 9.683207052450497 3.2079088177510098
318 27 2 0 0.0018658040923824615 9.594104833437264 3.6387999495037135
319 27 1 0 0.37389631596564143 9.468161835289076 3.875049671218319
320 27 1 0 0.5869331254265404 9.307674990650758 4.280793350356564
321 27 1 0 10.186301284681381 9.087298960100307 3.1010523261289333
322 27 1 0 0.04560342681145002 8.919296961696258 3.329373268447029
323 27 1 0 0.1022682720310879 8.810846706553763 3.76043538509065
324 27 1 0 0.38774993898611143 8.631445691201836 4.118461633824972
325 28 5 1.0 3.9718698460417796 4.330964802072343 15.058411727374217
326 28 6 -1.0 3.898113080133043 4.771156480827894 15.037847375485919
327 28 3 0 3.8339138562858373 5.205669415272616 15.283928771395125
328 28 3 0 3.7950966949819995 5.054704790784785 15.680606384112563
329 28 1 0 3.793740272455173 5.748467232142193 15.416925691637845
330 28 2 0 3.403048626653562 5.974474803080118 15.478370445154308
331 28 1 0 3.4944772113527685 6.397824054394615 15.628365434633347
332 28 1 0 3.351600511730885 6.832150240236339 15.791814679493092
333 28 1 0 3.4690502709403552 5.318219617971125 15.970511625123361
334 28 1 0 3.586397800266807 5.7578485630249245 16.165742009164187
335 28 1 0 3.318796078661563 6.104058038719076 16.262257440381205
336 28 1 0 3.259076961448904 6.553441225167948 16.452929095421727
337 29 5 1.0 6.465703523597879 7.017659897362838 13.158389971838005
338 29 6 -1.0 6.194506744490513 7.364777732994619 13.233177553157578
339 29 3 0 5.723670605746108 7.5405349173169185 13.263207980499283
340 29 3 0 5.51505338912169 7.20552063317197 13.102290285274753
341 29 1 0 5.271180506356607 7.852615523201865 13.371789622664021
342 29 2 0 5.056184725029651 8.115950297558419 13.068595868471546
343 29 1 0 4.675106763757411 8.28590465690925 13.258272895883154
344 29 1 0 4.262943076737702 8.541168851269019 13.231255700838899
345 29 1 0 5.10511978375265 7.330927235589328 12.826574839929025
346 29 1 0 4.680530545639917 7.474944451634722 13.036674757069063
347 29 1 0 4.368783408159409 7.755540116401442 12.878982949684064
348 29 1 0 3.9310237990703985 7.9740969178225845 12.928649341361819
349 30 5 1.0 4.079310762246739 4.084357182066576 2.677401434875865
350 30 6 -1.0 4.467198522923009 3.967791537368565 2.86604714175842
351 30 3 0 4.762234098433484 3.9716853544616866 3.2739906811442245
352 30 3 0 4.5429350268192294 4.246789180098048 3.514565036799623
353 30 1 0 5.163179636682284 3.8622705225268463 3.6497600752428894
354 30 2 0 5.534082310618773 4.11765480767299 3.718352460551225
355 30 1 0 5.764785327968391 3.956320192536508 4.080056111765873
356 30 1 0 6.128766334567722 3.9839674045146767 4.4002468379786315
357 30 1 0 4.8360178024171585 4.544438037818103 3.806625009559807
358 30 1 0 5.050946535497729 4.377683554706472 4.2203369103789905
359 30 1 0 5.436231984039496 4.506289482847675 4.4095525263265785
360 30 1 0 5.75760441703564 4.474845917530489 4.780495059301398
361 31 5 1.0 0.3810327764731909 8.447659926307491 10.730704631922503
362 31 6 -1.0 0.044043145821135 8.542042191858057 10.452924783996007
363 31 3 0 10.094829639550722 8.538438307223027 10.365877045968615
364 31 3 0 9.969155256780892 8.29891089585013 10.695244298448376
365 31 1 0 9.583740688375153 8.636357652058232 10.158195911718227
366 31 2 0 9.35504241317273 8.354819636784086 9.882645032877196
367 31 1 0 8.932020131175848 8.518131008077646 9.815833233785796
368 31 1 0 8.484456762374295 8.479454797565104 9.63155131851662
369 31 1 0 9.57274221503028 7.996104452997169 10.59057175171484
370 31 1 0 9.109955940391107 8.169434097230402 10.559836539718761
371 31 1 0 8.768923616004962 8.020301824142512 10.310350207874833
372 31 1 0 8.295479944934407 8.04723954835678 10.179993962927055
373 32 5 1.0 10.29455694514623 7.989770907091556 6.796259587346212
374 32 6 -1.0 10.409984442323463 8.41696330545599 6.734495400258745
375 32 3 0 0.0946450988425886 8.759948648325645 6.447560377418134
376 32 3 0 0.2936638682880776 8.498916870630307 6.1757071840742634
377 32 1 0 0.2669215562828876 9.2395892730481 6.214757325552612
378 32 2 0 0.6677625737007076 9.440338956843856 6.295509323462771
379 32 1 0 0.7167156195434606 9.799843535789146 6.015433746916814
380 32 1 0 0.9779098066866136 10.167637512965143 5.83578456210494
381 32 1 0 0.7503895836065437 8.667574557928532 6.024884145300447
382 32 1 0 0.8001833069094669 9.029084060554776 5.690234448675117
383 32 1 0 1.126657792121803 9.333392072379306 5.650260014667142
384 32 1 0 1.3301411324264736 9.706906698458901 5.4033821995792595
385 33 5 1.0 6.6975202762722414 4.102379334195582 12.963444367750975
386 33 6 -1.0 6.996185982454123 3.8279408225957066 12.776057157853247
387 33 3 0 7.468099822158277 3.6528137090025883 12.76571762521418
388 33 3 0 7.650958865773663 3.9329067160597617 13.02984012682164
389 33 1 0 7.926038509440658 3.3440178468558477 12.671543096591158
390 33 2 0 8.248789632280927 3.4415016674322594 12.36523694355746
391 33 1 0 8.595214156179313 3.144733957034942 12.409972241307356
392 33 1 0 9.038079568913894 2.985509139650702 12.290446819826117
393 33 1 0 8.130485683663723 4.051783960270851 12.90448616686852
394 33 1 0 8.509241141351847 3.7451519398625934 12.992122130677208
395 33 1 0 8.892032481774093 3.6974085889603483 12.764134690076018
396 33 1 0 9.334668003481676 3.488109863223389 12.717927119408072
397 34 5 1.0 9.89106928715459 5.08347505645993 8.75974976585079
398 34 6 -1.0 10.335100385336405 5.075621697537241 8.710694942106173
399 34 3 0 0.1955096735659601 4.832149511018818 8.541886153773394
400 34 3 0 0.016997676444909127 4.456495133644337 8.448786884534101
401 34 1 0 0.7128912567694327 4.702320718803005 8.370444181946544
402 34 2 0 1.0225160548942278 4.4791389070129455 8.619074842218799
403 34 1 0 1.3898560163191132 4.390013511564127 8.35984465843628
404 34 1 0 1.825713896590348 4.186394506599509 8.293997474209721
405 34 1 0 0.32135677639856747 4.056716815161035 8.534426932928424
406 34 1 0 0.6928353017076155 3.938486288088851 8.229166056753115
407 34 1 0 1.082940493373672 3.7392676229351642 8.323594727288546
408 34 1 0 1.509206879882881 3.5477723804050925 8.170317719618696
409 35 5 1.0 5.294869799602688 9.150360110568979 1.9236749346262945
410 35 6 -1.0 4.9471195605815765 9.388258501499356 1.7749947611496986
411 35 3 0 4.5083743536406065 9.613211887798927 1.8768657645493412
412 35 3 0 4.442173861216522 9.459928294109744 2.2690033080187004
413 35 1 0 4.0500729181554735 9.934773360105877 1.8547392783782148
414 35 2 0 3.6336233497623502 9.789156445829557 1.7413359573644318
415 35 1 0 3.332013497207043 10.128755962735147 1.8028659217437344
416 35 1 0 2.877627018427983 10.299915100124846 1.8053398333555069
417 35 1 0 3.9514940916291956 9.373438949496121 2.376447900851256
418 35 1 0 3.636756997379195 9.740404813821632 2.4833851289047515
419 35 1 0 3.195517205555863 9.764171191867144 2.409024411346238
420 35 1 0 2.7698557350084787 10.005712937162995 2.4573689977067
421 36 5 1.0 0.18968784968677355 1.3634396260985786 5.5299305579793145
422 36 6 -1.0 0.15615685563467707 1.1401466852589732 5.915479001291711
423 36 3 0 10.440672901926717 0.8204048592693898 6.202751902424518
424 36 3 0 10.080187784644082 0.8042452444694761 5.975948980580709
425 36 1 0 10.2851753998043 0.4547340151588193 6.5977670011630085
426 36 2 0 10.034861006281783 0.5565530800418838 6.964469093299014
427 36 1 0 9.932254249370013 0.1710201872690093 7.190120403030846
428 36 1 0 9.704531978900485 10.480941325934827 7.547705016424514
429 36 1 0 9.659675230995333 0.7576965435331644 6.260191472491873
430 36 1 0 9.529371294347706 0.32814648103583616 6.469156978553379
431 36 1 0 9.303323108757837 0.256593330649417 6.84937964409401
432 36 1 0 9.091306755709445 10.490381699893106 7.164068080810046
433 37 5 1.0 4.062008539856655 7.437420134339339 5.730176808395312
434 37 6 -1.0 3.9098729551196394 7.459619423131144 5.310660870002743
435 37 3 0 3.641716125409346 7.24681311240481 4.941493600665738
436 37 3 0 3.579835215604033 6.8622993487108745 5.114612452386851
437 37 1 0 3.34914720108537 7.154647078920644 4.472622174342984
438 37 2 0 3.5100893323257267 6.9470880126671 4.100450565588501
439 37 1 0 3.1688968337787684 6.887537661584006 3.8002444594237086
440 37 1 0 2.9954177348182216 6.714244616021209 3.381146421691141
441 37 1 0 3.577411288412714 6.481583383445279 4.775730670770052
442 37 1 0 3.1894990533034693 6.394218118415367 4.480687685529475
443 37 1 0 3.1826092382388125 6.219012531535823 4.06832565562846
444 37 1 0 2.9268798629770565 6.058994703452986 3.679913397089448
445 38 5 1.0 7.688987728038236 3.852527737299061 14.94428299902243
446 38 6 -1.0 7.480781209024901 4.237179687982022 14.853043811127774
447 38 3 0 7.416235967819749 4.7244756132412675 14.961927588700348
448 38 3 0 7.632108576197084 4.741868684226601 15.329006212871942