Lipid soup setup

2200 atoms
1100 bonds
800 angles
0 dihedrals
0 impropers

6 atom types
2 bond types
3 angle types
0 dihedral types
0 improper types

0 9.017797429984133 xlo xhi
0 9.017797429984133 ylo yhi
0 9.017797429984133 zlo zhi

Masses

1 72.000000
2 72.000000
3 72.000000
4 72.000000
5 72.000000
6 72.000000

Atoms

1 1 5 1.0 1.2773533817756673 8.952427739287508 4.649551077056177
2 1 6 -1.0 0.8940945180837452 0.06552822724289842 4.460844835473638
3 1 3 0 0.6642272669084709 0.3123391735910979 4.087047447100205
4 1 3 0 1.002492228524344 0.5058502507013696 3.914477180054343
5 1 1 0 0.2860135498571408 0.5041365287333661 3.7208511521641774
6 1 2 0 0.08165600413287549 0.9105464365804725 3.7445960940338194
7 1 1 0 8.8465419586718 0.9755940705217627 3.367917368241892
8 1 1 0 8.560569383780914 1.2516840151929138 3.0890577772114973
9 1 1 0 0.9022992182654173 0.9700893331760164 3.729450645359258
10 1 1 0 0.6644944686929217 1.0367741218359678 3.3003108139953907
11 1 1 0 0.3972182299644202 1.374048316383693 3.1754251029118383
12 1 1 0 0.12508657702374515 1.593560774646456 2.8295552641072566
13 2 5 1.0 3.495891482099447 3.5654058266810043 7.226217543179992
14 2 6 -1.0 3.8108839021436225 3.2485585523673954 7.230604706988623
15 2 3 0 4.224526697957227 3.060141661482527 7.447117516438212
16 2 3 0 4.31798841631644 3.383125453121635 7.709027034839919
17 2 1 0 4.643491321521932 2.724040351860383 7.606604573912453
18 2 2 0 5.070301921869458 2.745220527669513 7.448873937893923
19 2 1 0 5.3338745593112264 2.4533750668507235 7.684326615408793
20 2 1 0 5.7663293854717885 2.258685856825869 7.788478319562963
21 2 1 0 4.81797920823463 3.4579074088660295 7.773898065623957
22 2 1 0 5.092787370835046 3.1643236351132864 8.062771734168097
23 2 1 0 5.5264680892013205 3.0579361150425797 8.025493845010676
24 2 1 0 5.923814187880206 2.8295781665258772 8.20392037463395
25 3 5 1.0 3.1571070059569557 0.5800580719567053 2.8789662877489315
26 3 6 -1.0 3.0620272502725907 0.3096721999751235 3.2217242014771115
27 3 3 0 2.711479064218062 0.09856593511642556 3.5150315456508614
28 3 3 0 2.372136276516295 0.32358367918846687 3.3890803424919858
29 3 1 0 2.4395514905558895 8.785946057837906 3.8767100843751385
30 3 2 0 2.3375924902696914 8.896889003094058 4.306583166939819
31 3 1 0 2.0753760397130643 8.56873904747462 4.490001844401815
32 3 1 0 1.807981965734825 8.390686334211088 4.854098374388982
33 3 1 0 2.037329693680142 0.4177479221452763 3.7616780222765867
34 3 1 0 1.726031137718217 0.07128363784715286 3.929650233021928
35 3 1 0 1.5524115755399308 0.023134711399741978 4.33992433583674
36 3 1 0 1.2509774129396343 8.803457114954506 4.6475123048786395
37 4 5 1.0 1.6256665616098225 3.6222805880894877 8.980309570175555
38 4 6 -1.0 1.9331086305669651 3.920173809672773 8.852361651467916
39 4 3 0 2.294382582405159 4.048063066467624 8.52585812365444
40 4 3 0 2.333179605642357 3.6779443059073027 8.318115223995104
41 4 1 0 2.6723098736084845 4.331449797641489 8.224536881806916
42 4 2 0 3.1221960961356903 4.324103615753205 8.29555281204089
43 4 1 0 3.3326125764390775 4.555665697811181 7.96061075954946
44 4 1 0 3.7350062846790486 4.710274420070933 7.737129017078237
45 4 1 0 2.809796316367286 3.5730073090296823 8.171091003925843
46 4 1 0 3.0204237389396194 3.795719308602984 7.782253751431352
47 4 1 0 3.4526365955524465 3.8904443890772655 7.711499835375513
48 4 1 0 3.8056226095024446 4.06536587959351 7.417101045685814
49 5 5 1.0 1.4665343885015607 7.378714085126115 5.1944429634174485
50 5 6 -1.0 1.120984464683283 7.57988752775857 5.393832439719789
51 5 3 0 0.6719258763707896 7.8029209574777765 5.34820835128563
52 5 3 0 0.6576528249885375 7.84215189480668 4.92405338921377
53 5 1 0 0.16668265988544687 8.02239280687836 5.450643536385574
54 5 2 0 0.07648420525189031 8.46778016324191 5.482094824568061
55 5 1 0 8.641725424054174 8.528648551309878 5.521720404843932
56 5 1 0 8.251230428189247 8.815839231038437 5.5500720243634625
57 5 1 0 0.42389417243004207 8.26583797633634 4.763933495961876
58 5 1 0 8.948811303268416 8.312711951896013 4.76948290584812
59 5 1 0 8.701250793735328 8.68270856674775 4.82050456837973
60 5 1 0 8.259831238096199 8.899259138152503 4.8315466326396495
61 6 5 1.0 3.4186201005191292 6.216388610729358 2.9618854440388462
62 6 6 -1.0 3.3884218243265174 6.340173777760718 2.5336367269718285
63 6 3 0 3.335585042883156 6.7127793958720465 2.199193291046483
64 6 3 0 3.236423060276882 7.030397748452426 2.4655308618084097
65 6 1 0 3.3298035311036256 7.017977545107382 1.7293505179243502
66 6 2 0 2.9569247208799 7.120486329716396 1.488626227668354
67 6 1 0 3.068317155891039 7.4118267758949195 1.152776943911114
68 6 1 0 2.947454748923374 7.70053916531484 0.7815545342625256
69 6 1 0 2.9038469525072284 7.365007891115628 2.2726045325772266
70 6 1 0 3.0370011404731465 7.706363413072249 1.9395800219511647
71 6 1 0 2.7926768236622643 7.8924040132315065 1.6132650908848787
72 6 1 0 2.752190903941674 8.218462146864589 1.247322082951155
73 7 5 1.0 4.219535791168329 3.439467674402857 7.577771432910613
74 7 6 -1.0 3.790426677561589 3.324866632654632 7.529154183076901
75 7 3 0 3.3680510699703534 3.355739732935289 7.256895516096465
76 7 3 0 3.484093118820465 3.6626812837446705 6.984918778901817
77 7 1 0 2.8592008005551177 3.266081791847999 7.040182746407512
78 7 2 0 2.486989890558797 3.510195427542923 7.136942310806324
79 7 1 0 2.1423007708266453 3.3751228875997863 6.866707059129111
80 7 1 0 1.6871452934980804 3.41790203446191 6.70308530415919
81 7 1 0 3.1035672114601223 3.974272388392786 6.851118925110142
82 7 1 0 2.754856184206856 3.8396330099134564 6.526416273356973
83 7 1 0 2.326477946445917 3.9689406729983383 6.502783148090204
84 7 1 0 1.8931061707921448 3.9598682094515967 6.270460321550533
85 8 5 1.0 5.003251138005259 7.053123960517155 4.986561287002275
86 8 6 -1.0 5.419711116240777 7.198396730852727 4.915227032547392
87 8 3 0 5.721967375166474 7.569013814631625 4.757863710561497
88 8 3 0 5.430145390394248 7.826097202839397 4.58351268819324
89 8 1 0 6.164740719934915 7.898366877010693 4.660859107091742
90 8 2 0 6.396316733139448 7.916579093269161 4.2690227799826035
91 8 1 0 6.706644534146784 8.253138902388512 4.291526609989068
92 8 1 0 7.052586821438193 8.527983054580165 4.090148188807647
93 8 1 0 5.594719029081579 8.074114066824523 4.16975607353782
94 8 1 0 5.898049535806543 8.464288770747446 4.199976247751496
95 8 1 0 6.207875540848988 8.60394432256178 3.9079298740770607
96 8 1 0 6.54539373184929 8.935696425619566 3.774178933444431
97 9 5 1.0 8.091255557718975 1.1272820834635513 6.760507024670248
98 9 6 -1.0 7.807704267028384 1.1676417605646037 7.103437672387147
99 9 3 0 7.348270701840146 1.2948091499033945 7.265389326352616
100 9 3 0 7.1997418012620855 1.4802232599292826 6.911537674122439
101 9 1 0 6.8818732109688385 1.353912460139048 7.5702036089221245
102 9 2 0 6.765705401045399 1.7294194892715187 7.800408632683181
103 9 1 0 6.344145930616454 1.6776012449514741 7.972701273282592
104 9 1 0 5.957221110574188 1.848566127794478 8.21108926609603
105 9 1 0 6.890315421988133 1.8754334046049714 7.00016972756673
106 9 1 0 6.421307024253418 1.8148591452343248 7.146869546165395
107 9 1 0 6.169141362666348 2.082387155004806 7.40304947128467
108 9 1 0 5.73508890146067 2.184830947589859 7.610344023894179
109 10 5 1.0 3.6427658577936564 3.9786646237313876 1.9873644158132175
110 10 6 -1.0 3.3999006171928774 4.0479834278464395 1.6187955003638566
111 10 3 0 3.163222593405325 3.852229334694926 1.2198682738858726
112 10 3 0 3.307594100032538 3.451955756754496 1.244120060760264
113 10 1 0 2.8318605827352976 3.774764330865681 0.7747503583885533
114 10 2 0 2.9701320725190525 3.784805713763524 0.34084367752547745
115 10 1 0 2.6227116405201962 3.6628459450017177 0.06788373579270701
116 10 1 0 2.4413144693262496 3.5588388367270944 8.647450370009283
117 10 1 0 3.3809468140057044 3.2313952145946545 0.7905081008894438
118 10 1 0 3.005024122010982 3.0628761791025454 0.5158402666949052
119 10 1 0 2.9726934259583127 3.03317136541325 0.06990387990195646
120 10 1 0 2.720733105682086 2.892893261119341 8.68932290720655
121 11 5 1.0 0.47692979741148345 0.7571506929993317 4.761124361127595
122 11 6 -1.0 0.8348035980158324 0.5690271306888741 4.951302002495227
123 11 3 0 1.1940473718576774 0.5931886978371668 5.303209964303108
124 11 3 0 1.1351162431714876 0.9945648043803783 5.43387962971031
125 11 1 0 1.6061296887444603 0.46816517459600243 5.661663378815809
126 11 2 0 2.046373326643118 0.566781228064607 5.598772558792816
127 11 1 0 2.281781808631627 0.4584348654759423 5.9768283534569555
128 11 1 0 2.693587801820853 0.447219600629261 6.233847194119924
129 11 1 0 1.565460091735628 1.2337594256035689 5.565718503809785
130 11 1 0 1.7956450094495466 1.144101415642817 5.994828396177443
131 11 1 0 2.2326767522831577 1.1680644613126716 6.090828079132946
132 11 1 0 2.596508209305207 1.1393580341940437 6.420479278406948
133 12 5 1.0 4.764736846854223 7.695417745302606 7.219117260927294
134 12 6 -1.0 4.577130721738163 7.346756656058971 7.426170524117982
135 12 3 0 4.597510388998852 7.010152566650034 7.800017337813769
136 12 3 0 4.994402687775582 7.083640330753771 7.936861300005757
137 12 1 0 4.469398912976574 6.618731193849136 8.179896695315964
138 12 2 0 4.576253116135743 6.177170000824038 8.146719383239741
139 12 1 0 4.461634355873832 5.963543667046207 8.535703445728332
140 12 1 0 4.449924080492943 5.568092286669738 8.817216709815002
141 12 1 0 5.236536993112932 6.666206309853659 8.100907634670335
142 12 1 0 5.139186059568746 6.461225735782386 8.540981168085326
143 12 1 0 5.167223475422244 6.031340788051995 8.664268417858422
144 12 1 0 5.1354096117864625 5.687916813919074 9.014860992410146
145 13 5 1.0 5.868592985545046 0.7393070157206936 5.01815445781834
146 13 6 -1.0 6.005137369715461 1.0759834356608238 4.758084685373804
147 13 3 0 5.942973383509593 1.5526042869951246 4.60826049891737
148 13 3 0 5.566524772456383 1.633373110659178 4.791052891126892
149 13 1 0 6.019003563339751 2.062349979717117 4.388464438587352
150 13 2 0 5.843466851924888 2.2056268745496577 3.993301894426179
151 13 1 0 5.934257871372315 2.651675938085363 3.939640965771527
152 13 1 0 5.891940749780335 3.0687065232743223 3.694562621389561
153 13 1 0 5.266814034212922 1.942295412188472 4.518047637436925
154 13 1 0 5.343362815918398 2.4309551223626062 4.495443954267876
155 13 1 0 5.2519161037204585 2.715611278847317 4.161684636295995
156 13 1 0 5.239552735286642 3.1756562180919263 3.9882686559023592
157 14 5 1.0 5.2541930458993145 0.3495402771863194 1.1580350983915075
158 14 6 -1.0 5.659768313733458 0.19980653538759288 1.0452513414947426
159 14 3 0 6.155454332023699 0.20081210646058148 1.1334184785320371
160 14 3 0 6.174891644391776 0.5228750711802187 1.411892635202902
161 14 1 0 6.7008895240316875 0.0730535372835927 1.1438954509613277
162 14 2 0 7.0232221218153645 0.28206718923668345 0.8991306012414592
163 14 1 0 7.435028237118592 0.12438415747295034 1.0241668217942457
164 14 1 0 7.91987448895371 0.1318863593237597 0.9989384311061853
165 14 1 0 6.598388969238193 0.8038140275841983 1.3729734604237451
166 14 1 0 7.034902461167455 0.6475000214916844 1.5466998478376868
167 14 1 0 7.4472517375496565 0.7401866431078941 1.3978234717064666
168 14 1 0 7.934881483771038 0.699523299250286 1.4471288905352493
169 15 5 1.0 1.949856499383968 2.9551992725938336 4.864238816980155
170 15 6 -1.0 2.187614021786419 3.05111021279606 4.4983096992235785
171 15 3 0 2.3857419221483624 3.4028014837693243 4.197414918653449
172 15 3 0 2.194176404497219 3.7473814421403424 4.35933317897551
173 15 1 0 2.690846931756833 3.672939310807683 3.812878762817569
174 15 2 0 2.541199657188249 3.7987971980200874 3.4014661628698333
175 15 1 0 2.8622176293718535 4.051688925944946 3.193919765551623
176 15 1 0 3.015527425477069 4.3251324525928805 2.823118758540585
177 15 1 0 2.079999626053172 4.102255881358913 4.011742645162572
178 15 1 0 2.4235218278797834 4.402527754540213 3.8194193396344622
179 15 1 0 2.4378425489103 4.590977931521712 3.4131332844045
180 15 1 0 2.6579553869245105 4.892941540614469 3.093390233526926
181 16 5 1.0 0.1330706328900192 4.1036268229595745 7.737167451327825
182 16 6 -1.0 0.39235670172598347 3.8771383618516775 8.02195751194108
183 16 3 0 0.5464495002856418 3.8066109202836595 8.496046505035089
184 16 3 0 0.3720589203862792 4.150971133688025 8.67675120158753
185 16 1 0 0.7678253805124928 3.5928031812963197 8.964245755390252
186 16 2 0 1.167458231540532 3.7162521582452186 0.12686111992081622
187 16 1 0 1.2220286419861457 3.5083417997196773 0.5316791341927118
188 16 1 0 1.4705631116256042 3.43290359013709 0.9419331245253942
189 16 1 0 0.6531978419673534 4.351918566957082 0.03361684608195797
190 16 1 0 0.6772842448159161 4.1468866382953165 0.48366207519556814
191 16 1 0 1.0146675088341472 4.152596697415305 0.7784956542105219
192 16 1 0 1.1912035809179435 4.038102254948465 1.2230103774277903
193 17 5 1.0 5.167240360390113 8.97576060297832 2.423357015206815
194 17 6 -1.0 4.758306253236963 0.13358141977721516 2.4628892113922736
195 17 3 0 4.2619258945367475 0.0570936103407238 2.498035170750653
196 17 3 0 4.249836989884908 8.659225393713806 2.4046213232686995
197 17 1 0 3.7125006829435696 0.11917487981337516 2.58864102308196
198 17 2 0 3.400091771746689 0.1880934395309719 2.26437917474583
199 17 1 0 2.9818935327340315 0.17731669475531397 2.4516660301741147
200 17 1 0 2.4978834212372165 0.18817338307216325 2.414450617567058
201 17 1 0 3.836286674151146 8.518915012301488 2.1417895961744353
202 17 1 0 3.392872799772937 8.467953622261172 2.356139841228955
203 17 1 0 2.985558908770725 8.528173321955052 2.1793464790941353
204 17 1 0 2.4963137621137927 8.507796909365783 2.2250770984002557
205 18 5 1.0 2.404591479341812 4.9588927780532766 7.677758358238291
206 18 6 -1.0 2.5498897894369845 5.342634833695803 7.854569282522592
207 18 3 0 2.851670136752017 5.5738814792342675 8.184618816466505
208 18 3 0 2.981920346997074 5.234839962940249 8.407634401683811
209 18 1 0 3.1556572954007907 5.954376893533802 8.46165061013629
210 18 2 0 3.034404697343101 6.150286123484132 8.854603817324705
211 18 1 0 3.380490135692665 6.408186627324785 9.008858383022417
212 18 1 0 3.5819834388880034 6.6933442612842935 0.3284838556544649
213 18 1 0 3.0525700436059986 5.329004056303586 8.903550853753156
214 18 1 0 3.4496242645224333 5.572655256980811 0.05350619686639213
215 18 1 0 3.4876011276462067 5.835325477581122 0.4145450091935139
216 18 1 0 3.7676359281072713 6.108887486784698 0.7122220807168791
217 19 5 1.0 7.106605980649914 2.748817451702063 3.115686914844521
218 19 6 -1.0 6.69743070866092 2.798976748561382 2.943375252839756
219 19 3 0 6.410777337917066 2.965208447331137 2.5643291457231183
220 19 3 0 6.704153088552625 3.186553969508321 2.348488818071453
221 19 1 0 5.986899949738376 3.0560685747211433 2.209358774182462
222 19 2 0 5.723127727414294 3.427432555005995 2.206556840504064
223 19 1 0 5.442045671853713 3.4113327205861346 1.8448719708579115
224 19 1 0 5.100912459515743 3.6085743320176027 1.5611599323262748
225 19 1 0 6.522105029771438 3.6069170583122174 2.125005571701242
226 19 1 0 6.252664408298058 3.588807798677594 1.7099962211603263
227 19 1 0 5.929184896795188 3.866198476107716 1.571423754045684
228 19 1 0 5.606728073455106 4.002421890111636 1.22597899750995
229 20 5 1.0 5.406975836767747 5.9001396681312634 0.4884838449225999
230 20 6 -1.0 5.198210387396261 5.507960351797626 0.5358551244106594
231 20 3 0 4.9071119194936 5.21022463385811 0.8188643260326799
232 20 3 0 4.910667183312211 5.435014831828656 1.1809512565965825
233 20 1 0 4.565609702213094 4.8038451045396435 0.9982061264408009
234 20 2 0 4.696239118157421 4.439362028269794 1.2381704670375695
235 20 1 0 4.3260700894369535 4.2018850267679255 1.3672511994932313
236 20 1 0 4.117276463801337 3.836486487152105 1.6094448653650728
237 20 1 0 4.903401969262352 5.147846114461884 1.6019889365893016
238 20 1 0 4.490885570019274 4.925622203164762 1.7620067744205965
239 20 1 0 4.447307338475622 4.542539272973025 1.9903383693888717
240 20 1 0 4.160203390916068 4.217804240180501 2.2226867781039976
241 21 5 1.0 4.658662288248781 0.9403192532984036 0.758490069857972
242 21 6 -1.0 4.382856661092985 0.7975890155428398 0.4372565062458058
243 21 3 0 4.045823447006433 0.9122811544474685 0.08126014414228955
244 21 3 0 3.982598840007154 1.322878526669372 0.17645817607520442
245 21 1 0 3.7047515967992837 0.8954677227782175 8.654851688143355
246 21 2 0 3.253674037181801 0.8348653590993589 8.67359283755323
247 21 1 0 3.076097066352454 0.8854012126545641 8.254075473795801
248 21 1 0 2.6967700789131834 0.9087869726297938 7.951862328021978
249 21 1 0 3.504226789128178 1.4810779774766825 0.09948741380129178
250 21 1 0 3.3275912335185636 1.5747800460760413 8.664318225086484
251 21 1 0 2.9079706410986534 1.5367783621116962 8.511801533008033
252 21 1 0 2.582111889975881 1.5955400341107198 8.148166494157154
253 22 5 1.0 2.304447843955371 8.705256048035263 1.648972394049026
254 22 6 -1.0 2.696458714597761 8.769470311004188 1.4444346888182142
255 22 3 0 3.099006138116328 0.045924324322547005 1.3747874068329602
256 22 3 0 2.9628639815425983 0.3967968759619449 1.5747973665828636
257 22 1 0 3.6062530325234716 0.24138458111195993 1.2390396858194879
258 22 2 0 3.698249535583467 0.4998216971975177 0.875389108466387
259 22 1 0 4.1353306582076135 0.6366871575847394 0.8930018753152555
260 22 1 0 4.5085756481653485 0.8942012097659376 0.7193835207309803
261 22 1 0 3.1220279966538484 0.8310733056838373 1.3606427905762066
262 22 1 0 3.5849787649237395 0.9977065386282562 1.4160405040459574
263 22 1 0 3.8317518848230385 1.2437803856054968 1.1343711942898107
264 22 1 0 4.2471316618126425 1.4887682053765725 1.0378936824470284
265 23 5 1.0 8.120057485042222 8.397355782172385 5.826720594621023
266 23 6 -1.0 7.678591383648594 8.334238210338423 5.799233860045441
267 23 3 0 7.216384517360273 8.532745420775125 5.820181034450102
268 23 3 0 7.31425467652442 8.918342563984595 5.9731074657284315
269 23 1 0 6.665148793944835 8.620393033092524 5.771307310262729
270 23 2 0 6.3625125124968465 8.577326499116044 6.109022274037978
271 23 1 0 5.951492554227615 8.718695943513184 5.963559063387776
272 23 1 0 5.482937857072816 8.818940864020695 6.04214719439049
273 23 1 0 6.963460879517794 0.09200866391800311 6.289456659241088
274 23 1 0 6.536813205795159 0.28228467548646385 6.125365962522687
275 23 1 0 6.137092929115779 0.2942484438120605 6.327523029152393
276 23 1 0 5.667096470147717 0.43904958718578513 6.329328214638208
277 24 5 1.0 4.608859340965828 0.03343785150083178 3.6952575701998547
278 24 6 -1.0 4.430979385326943 8.756123201345401 3.979685502494033
279 24 3 0 4.504872549010396 8.403701440778368 4.331563019528942
280 24 3 0 4.926354299602181 8.35446842627329 4.2918205675352326
281 24 1 0 4.436471236285499 8.039810869665557 4.752082317900525
282 24 2 0 4.392085174376236 7.589092328795352 4.70332253550609
283 24 1 0 4.3890631450594055 7.391186725247937 5.116730942509146
284 24 1 0 4.381247201593744 6.997328025500717 5.400602177947069
285 24 1 0 5.086080588163756 7.876322046153612 4.367019872476917
286 24 1 0 5.121124569675009 7.6785676493464115 4.819594808508651
287 24 1 0 5.074458243868595 7.250886301519365 4.944885788575402
288 24 1 0 5.091603313770788 6.908004864166981 5.297030173390358
289 25 5 1.0 3.393017243550365 0.5603794689899733 3.1637644179032534
290 25 6 -1.0 3.4536218852019522 0.17427419855901682 2.9472431379161455
291 25 3 0 3.3613264389869304 8.69784015614549 2.920863481842199
292 25 3 0 3.182367264950093 8.641010378712037 3.3034784432780566
293 25 1 0 3.3073366567715228 8.168669982953071 2.744807812095198
294 25 2 0 3.595174990558406 7.829621117105684 2.843244604634993
295 25 1 0 3.4249475836231635 7.434896987979783 2.684191898366396
296 25 1 0 3.443587788198892 6.952316901847833 2.6338168461069995
297 25 1 0 3.29065834900015 8.191020597761398 3.516958235525887
298 25 1 0 3.0736281438246777 7.770917484365179 3.3700902030029303
299 25 1 0 3.23576596698264 7.353210852433897 3.3744955261168554
300 25 1 0 3.1694340428884082 6.871881370535518 3.298408030686342
301 26 5 1.0 1.4631930401471787 3.2567927607649136 8.835484084232823
302 26 6 -1.0 1.8237423831937765 3.218233380199365 8.574430425896837
303 26 3 0 2.317083413734194 3.2974689204409398 8.51266117219474
304 26 3 0 2.388993681022865 3.5481049946607657 8.849797183394658
305 26 1 0 2.846637391968672 3.280453510128216 8.330412365399868
306 26 2 0 3.043570263698341 3.59724964471867 8.068969264331999
307 26 1 0 3.489112232442264 3.5002460851736252 8.022440401452677
308 26 1 0 3.9342361669222816 3.608385829723696 7.861384134112482
309 26 1 0 2.7399587604361413 3.9084802946028914 8.767672036411689
310 26 1 0 3.224504831009003 3.806987554493693 8.759111427882239
311 26 1 0 3.551008286968757 4.009338101680118 8.528380718549458
312 26 1 0 4.028921532156494 4.055675335864306 8.421989496816753
313 27 5 1.0 8.258937961103593 8.64448574086745 0.5502465107276902
314 27 6 -1.0 8.508852737713783 8.673679859001126 0.9194645696438387
315 27 3 0 8.785859838155035 8.438202466907335 1.2677411092970376
316 27 3 0 8.689561247855764 8.034564039965256 1.1705154949161387
317 27 1 0 0.12695428830589783 8.321284540611703 1.6818164460585072
318 27 2 0 0.009104939139586321 8.23218232159847 2.112707577811211
319 27 1 0 0.3811354510128453 8.106239323450282 2.348957299525816
320 27 1 0 0.5941722604737443 7.945752478811965 2.754700978664062
321 27 1 0 8.66467961119944 7.725376448261514 1.5749599544364312
322 27 1 0 0.05284256185865388 7.5573744498574635 1.8032808967545264
323 27 1 0 0.10950740707829176 7.448924194714969 2.2343430133981474
324 27 1 0 0.3949890740333153 7.269523179363044 2.59236926213247
325 28 5 1.0 3.450307779004559 3.5089238681586323 7.7536785384898685
326 28 6 -1.0 3.3765510130958214 3.9491155469141845 7.73311418660157
327 28 3 0 3.3123517892486163 4.3836284813589055 7.979195582510776
328 28 3 0 3.2735346279447786 4.232663856871075 8.375873195228214
329 28 1 0 3.2721782054179522 4.926426298228483 8.112192502753496
330 28 2 0 2.881486559616341 5.1524338691664076 8.17363725626996
331 28 1 0 2.9729151443155475 5.575783120480905 8.323632245748998
332 28 1 0 2.830038444693664 6.0101093063226285 8.487081490608743
333 28 1 0 2.9474882039031343 4.496178684057415 8.665778436239012
334 28 1 0 3.064835733229586 4.935807629111214 8.861008820279839
335 28 1 0 2.797234011624342 5.282017104805366 8.957524251496855
336 28 1 0 2.737514894411683 5.7314002912542374 0.13039847655324266
337 29 5 1.0 5.725797517843692 5.900734843534729 7.05165259916263
338 29 6 -1.0 5.4546007387363264 6.24785267916651 7.126440180482202
339 29 3 0 4.983764599991921 6.423609863488809 7.156470607823907
340 29 3 0 4.7751473833675036 6.088595579343861 6.995552912599377
341 29 1 0 4.53127450060242 6.735690469373756 7.265052249988646
342 29 2 0 4.316278719275465 6.999025243730308 6.961858495796171
343 29 1 0 3.935200758003224 7.16897960308114 7.151535523207779
344 29 1 0 3.523037070983516 7.42424379744091 7.124518328163522
345 29 1 0 4.365213777998463 6.214002181761218 6.719837467253648
346 29 1 0 3.94062453988573 6.358019397806613 6.929937384393687
347 29 1 0 3.628877402405222 6.638615062573333 6.772245577008687
348 29 1 0 3.1911177933162116 6.857171863994475 6.821911968686444
349 30 5 1.0 3.336101009734798 3.4792137165508796 0.9156198821159172
350 30 6 -1.0 3.723988770411068 3.362648071852868 1.1042655889984725
351 30 3 0 4.019024345921543 3.36654188894599 1.512209128384277
352 30 3 0 3.7997252743072885 3.6416457145823515 1.7527834840396754
353 30 1 0 4.419969884170343 3.2571270570111497 1.8879785224829417
354 30 2 0 4.790872558106832 3.5125113421572935 1.9565709077912774
355 30 1 0 5.02157557545645 3.3511767270208113 2.3182745590059253
356 30 1 0 5.385556582055781 3.37882393899898 2.638465285218684
357 30 1 0 4.0928080499052175 3.9392945723024058 2.0448434567998595
358 30 1 0 4.307736782985788 3.772540089190775 2.4585553576190424
359 30 1 0 4.693022231527555 3.9011460173319787 2.6477709735666304
360 30 1 0 5.014394664523699 3.869702452014792 3.0187135065414497
361 31 5 1.0 0.5365664603881051 7.2390556617187105 5.942822084975821
362 31 6 -1.0 0.19957682973604918 7.3334379272692765 5.665042237049326
363 31 3 0 8.721502514936493 7.329834042634246 5.5779944990219334
364 31 3 0 8.595828132166663 7.090306631261349 5.9073617515016945
365 31 1 0 8.210413563760923 7.427753387469451 5.370313364771546
366 31 2 0 7.981715288558501 7.146215372195306 5.094762485930516
367 31 1 0 7.558693006561619 7.309526743488865 5.027950686839114
368 31 1 0 7.111129637760065 7.270850532976323 4.843668771569938
369 31 1 0 8.19941509041605 6.787500188408389 5.80268920476816
370 31 1 0 7.736628815776876 6.960829832641621 5.7719539927720795
371 31 1 0 7.395596491390731 6.811697559553731 5.522467660928152
372 31 1 0 6.922152820320177 6.838635283767999 5.392111415980374
373 32 5 1.0 8.685529752935132 6.672432466570562 3.9522467421910887
374 32 6 -1.0 8.800957250112367 7.099624864934997 3.890482555103623
375 32 3 0 0.014478715160636313 7.442610207804652 3.6035475322630117
376 32 3 0 0.21349748460612533 7.1815784301093135 3.331694338919141
377 32 1 0 0.18675517260093533 7.922250832527107 3.370744480397489
378 32 2 0 0.5875961900187553 8.123000516322863 3.4514964783076487
379 32 1 0 0.6365492358615084 8.482505095268152 3.1714209017616914
380 32 1 0 0.8977434230046614 8.85029907244415 2.991771716949817
381 32 1 0 0.6702231999245915 7.3502361174075395 3.180871300145325
382 32 1 0 0.7200169232275146 7.711745620033783 2.8462216035199943
383 32 1 0 1.0464914084398507 8.016053631858313 2.806247169512019
384 32 1 0 1.2499747487445214 8.389568257937908 2.5593693544241374
385 33 5 1.0 5.519860249418933 3.5779291924926975 7.039373466603277
386 33 6 -1.0 5.818525955600815 3.3034906808928217 6.851986256705548
387 33 3 0 6.290439795304969 3.1283635672997034 6.841646724066482
388 33 3 0 6.473298838920354 3.408456574356877 7.105769225673942
389 33 1 0 6.748378482587349 2.819567705152963 6.74747219544346
390 33 2 0 7.071129605427617 2.9170515257293745 6.441166042409762
391 33 1 0 7.417554129326005 2.620283815332057 6.485901340159657
392 33 1 0 7.860419542060585 2.4610589979478172 6.36637591867842
393 33 1 0 6.952825656810415 3.527333818567966 6.98041526572082
394 33 1 0 7.3315811144985386 3.2207017981597086 7.06805122952951
395 33 1 0 7.714372454920785 3.1729584472574635 6.84006378892832
396 33 1 0 8.157007976628368 2.963659721520504 6.793856218260375
397 34 5 1.0 8.266743061894744 4.449414656631156 4.826098081809734
398 34 6 -1.0 8.710774160076559 4.441561297708466 4.777043258065118
399 34 3 0 0.10004425683525814 4.198089111190043 4.608234469732339
400 34 3 0 8.93932968969834 3.822434733815562 4.515135200493046
401 34 1 0 0.6174258400387307 4.068260318974231 4.436792497905489
402 34 2 0 0.9270506381635257 3.84507850718417 4.685423158177744
403 34 1 0 1.2943905995884113 3.755953111735352 4.426192974395226
404 34 1 0 1.7302484798596462 3.5523341067707337 4.360345790168666
405 34 1 0 0.2258913596678655 3.42265641533226 4.600775248887368
406 34 1 0 0.5973698849769136 3.3044258882600763 4.295514372712061
407 34 1 0 0.98747507664297 3.1052072231063894 4.389943043247491
408 34 1 0 1.4137414631521792 2.913711980576318 4.236666035577642
409 35 5 1.0 4.731458309421366 7.741235332054938 0.9622059693743858
410 35 6 -1.0 4.383708070400254 7.979133722985314 0.81352579589779
411 35 3 0 3.944962863459284 8.204087109284886 0.9153967992974326
412 35 3 0 3.878762371035199 8.050803515595703 1.3075343427667918
413 35 1 0 3.4866614279741515 8.525648581591836 0.8932703131263062
414 35 2 0 3.0702118595810277 8.380031667315516 0.7798669921125232
415 35 1 0 2.7686020070257205 8.719631184221106 0.8413969564918257
416 35 1 0 2.3142155282466605 8.890790321610805 0.8438708681035982
417 35 1 0 3.388082601447873 7.96431417098208 1.4149789355993474
418 35 1 0 3.0733455071978724 8.331280035307591 1.5219161636528429
419 35 1 0 2.6321057153745406 8.355046413353103 1.4475554460943294
420 35 1 0 2.206444244827156 8.596588158648954 1.4959000324547913
421 36 5 1.0 0.2749660966397496 1.2845444188017663 2.47702612159373
422 36 6 -1.0 0.24143510258765133 1.061251477962161 2.8625745649061263
423 36 3 0 8.997090340350548 0.7415096519725775 3.149847466038934
424 36 3 0 8.636605223067912 0.7253500371726638 2.923044544195125
425 36 1 0 8.84159283822813 0.37583880786200696 3.5448625647774237
426 36 2 0 8.591278444705614 0.4776578727450714 3.91156465691343
427 36 1 0 8.488671687793843 0.09212497997219699 4.137215966645262
428 36 1 0 8.260949417324316 8.873185310108871 4.4948005800389295
429 36 1 0 8.216092669419162 0.6788013362363521 3.207287036106289
430 36 1 0 8.085788732771537 0.24925127373902384 3.4162525421677947
431 36 1 0 7.859740547181668 0.17769812335260465 3.7964752077084256
432 36 1 0 7.647724194133275 8.88262568406715 4.111163644424462
433 37 5 1.0 3.5655948740288053 6.448498173434952 3.640132880929948
434 37 6 -1.0 3.41345928929179 6.470697462226757 3.220616942537379
435 37 3 0 3.1453024595814965 6.257891151500423 2.851449673200374
436 37 3 0 3.083421549776183 5.873377387806487 3.024568524921486
437 37 1 0 2.85273353525752 6.1657251180162564 2.3825782468776198
438 37 2 0 3.013675666497877 5.958166051762713 2.0104066381231367
439 37 1 0 2.6724831679509187 5.898615700679619 1.7102005319583444
440 37 1 0 2.499004068990372 5.7253226551168215 1.2911024942257765
441 37 1 0 3.080997622584864 5.492661422540891 2.6856867433046876
442 37 1 0 2.6930853874756195 5.405296157510979 2.3906437580641104
443 37 1 0 2.6861955724109627 5.230090570631435 1.9782817281630956
444 37 1 0 2.4304661971492068 5.070072742548598 1.5898694696240838
445 38 5 1.0 6.633357850502366 3.08657487565542 7.8274874253295685
446 38 6 -1.0 6.4251513314890305 3.4712268263383805 7.736248237434912
447 38 3 0 6.360606090283879 3.9585227515976262 7.845132015007486
448 38 3 0 6.576478698661214 3.9759158225829596 8.21221063917908
449 38 1 0 6.224422002062914 4.501614230074917 7.824224892991259