Lipid soup setup

3521 atoms
1408 bonds
1024 angles
0 dihedrals
0 impropers

6 atom types
2 bond types
3 angle types
0 dihedral types
0 improper types

0 10.548523206751055 xlo xhi
0 10.548523206751055 ylo yhi
0 10.548523206751055 zlo zhi

Masses

1 1
2 1
3 1
4 1
5 1
6 1

Atoms

1 1 5 8.861242189860825 7.117895291012138 10.54723786679278 1.9316593199962409
2 1 6 -8.861242189860825 7.045726519415491 0.04699839734112565 1.493376287869549
3 1 3 0.0 6.9826958232374015 10.377313010134069 1.0440532138825807
4 1 3 0.0 7.0919771218397365 9.978115150072155 1.14578268152801
5 1 1 0.0 6.855408628445604 10.275086570806584 0.508068799207409
6 1 2 0.0 7.156398827235215 10.256899529522043 0.1666468114605203
7 1 1 0.0 6.943879242879543 10.121128618062828 10.332437791420716
8 1 1 0.0 6.950234655205193 9.991566840370629 9.864525409512211
9 1 1 0.0 7.333873156591192 9.729106703894068 0.7725903910845762
10 1 1 0.0 7.094418755747911 9.547004549300892 0.3793228612398454
11 1 1 0.0 7.242761129880694 9.489850763499161 10.50890108862643
12 1 1 0.0 7.167342838570055 9.32717248612002 10.050954409782452
13 2 5 8.861242189860825 0.7778316273644864 1.7903215973945457 0.8573395207245913
14 2 6 -8.861242189860825 0.7404860910549402 2.0965352631505243 1.180557974643255
15 2 3 0.0 0.6425503050464054 2.1980008104610578 1.6638719600428438
16 2 3 0.0 0.4921411071835722 1.8179291444011003 1.7845898963502251
17 2 1 0.0 0.604180510953849 2.4451241338664604 2.1652594245456878
18 2 2 0.0 0.22636462386489042 2.634398517226635 2.3353335413946086
19 2 1 0.0 0.30265412851862794 2.762786649678614 2.768667904770793
20 2 1 0.0 0.1504287001014665 2.9449008890710906 3.192260238744855
21 2 1 0.0 0.11952856135299192 1.844326503348621 2.131367135616542
22 2 1 0.0 0.21005693214747304 1.9427652914574125 2.6080991084249927
23 2 1 0.0 10.49795363765485 2.150489796568275 2.90761750144192
24 2 1 0.0 10.419719708317308 2.301419474636656 3.3691009635920564
25 3 5 8.861242189860825 3.1838306176769766 1.9599683194359372 4.629846659842078
26 3 6 -8.861242189860825 3.1911288383623146 1.753790581051288 4.233527163348462
27 3 3 0.0 3.4059922985001974 1.7055844340235344 3.780770114986668
28 3 3 0.0 3.6587910813958793 2.0486454690145997 3.7879895281876816
29 3 1 0.0 3.567271418662852 1.5167782921895978 3.278502403665733
30 3 2 0.0 3.402881341458148 1.6621157985605886 2.8793185441302738
31 3 1 0.0 3.641312975489313 1.4703964303635801 2.538032284065748
32 3 1 0.0 3.7437331785855066 1.4188880554068075 2.0662000766498823
33 3 1 0.0 3.714581143567371 2.27323704383267 3.333855762622337
34 3 1 0.0 4.006290569844337 2.0847101923065763 2.9809787419824416
35 3 1 0.0 3.9652271573526003 2.113868021367033 2.5357254117438783
36 3 1 0.0 4.143202248390727 2.0216473034682814 2.0866290886463696
37 4 5 8.861242189860825 6.0780955417593026 7.9086819793572145 10.070442314465454
38 4 6 -8.861242189860825 5.982026325334861 8.070059715570917 10.475855189250739
39 4 3 0.0 6.009268185401381 8.014317362197394 0.42696160037222997
40 4 3 0.0 6.151580228387618 7.612914503070962 0.44349173636242945
41 4 1 0.0 6.004559338439396 8.104247406443516 0.979973337618743
42 4 2 0.0 5.667878807797454 7.982985417636042 1.26181831684003
43 4 1 0.0 5.794793114534995 8.065626897691903 1.6944213867285467
44 4 1 0.0 5.715615979802436 8.045271039135788 2.173049909704212
45 4 1 0.0 5.969482776833481 7.3456616055340955 0.8374559358000904
46 4 1 0.0 6.138421801254927 7.408305778474186 1.2986438242415044
47 4 1 0.0 5.922164053892842 7.356604642203304 1.687676586542692
48 4 1 0.0 5.928969934090724 7.354075649507397 2.1794230511463213
49 5 5 8.861242189860825 2.5271603434690677 5.908655591056393 2.158066755296001
50 5 6 -8.861242189860825 2.313234289513899 5.946280124670216 1.7676161117556863
51 5 3 0.0 2.33025399306314 6.077809494495495 1.281931606629745
52 5 3 0.0 2.7087570655242184 6.273674451557549 1.2771817621850388
53 5 1 0.0 2.2191513717513938 6.138224079832931 0.736094769244807
54 5 2 0.0 2.0384609765460193 6.5104559938415525 0.5455974589511049
55 5 1 0.0 2.036693486366803 6.462177548922435 0.08980327371820762
56 5 1 0.0 1.9546364240610843 6.634505497915927 10.191853234720613
57 5 1 0.0 2.7307366723326902 6.6721551579758325 0.9601306511006429
58 5 1 0.0 2.7705941513019336 6.61652796696612 0.46974717685680856
59 5 1 0.0 2.619299791868588 6.882622914580982 0.14250047085808693
60 5 1 0.0 2.585484304883526 6.987978784068989 10.211832739815154
61 6 5 8.861242189860825 4.6275881026239185 6.6669111608592395 6.730527696758992
62 6 6 -8.861242189860825 4.79597806124053 7.055216611129028 6.873689724753172
63 6 3 0.0 4.715287979244856 7.5369755451972145 6.995659081839225
64 6 3 0.0 4.316569481546135 7.5784754190360815 6.850912619520178
65 6 1 0.0 4.764140241284696 8.056078693620066 7.200785738861908
66 6 2 0.0 4.877270716702352 8.42399085405506 6.957193908762944
67 6 1 0.0 4.840592682884648 8.797498502073804 7.2203080099894565
68 6 1 0.0 4.856431129708187 9.278933718555995 7.2814465296055255
69 6 1 0.0 4.213963886104774 8.039194172622087 6.658554345923225
70 6 1 0.0 4.133735894237363 8.43320982605047 6.947473173615701
71 6 1 0.0 4.217808532873845 8.865479811380833 6.864639834043379
72 6 1 0.0 4.191223499586094 9.33663918524347 7.003093370242167
73 7 5 8.861242189860825 4.351442220937591 7.08151279572511 10.23966975737655
74 7 6 -8.861242189860825 4.672886893034198 7.078236305542336 9.929356601799283
75 7 3 0.0 4.852707820143658 6.881164340393889 9.502383348912181
76 7 3 0.0 4.589370438238268 6.548214988414171 9.464325884504449
77 7 1 0.0 5.138788161048443 6.791988290146367 9.028952004110973
78 7 2 0.0 5.488856412772841 6.503829569057381 8.985230012503603
79 7 1 0.0 5.612237137109197 6.480539580506571 8.544415941887655
80 7 1 0.0 5.882143644556072 6.293486618867069 8.186742474284028
81 7 1 0.0 4.808294722726131 6.1341059131726405 9.263385059864456
82 7 1 0.0 4.9028330029748775 6.09512663072765 8.778924448536195
83 7 1 0.0 5.230893585011545 5.870005124222878 8.572809255616553
84 7 1 0.0 5.444343784818147 5.718397331787124 8.15649039856733
85 8 5 8.861242189860825 4.770298783116827 4.1660677799207235 4.764971333273133
86 8 6 -8.861242189860825 4.772207628394649 4.531080746029316 4.507301858919171
87 8 3 0.0 5.039247213550404 4.892252427053083 4.279872835394737
88 8 3 0.0 5.418267310249446 4.822080247862086 4.461724010412885
89 8 1 0.0 5.204084115725611 5.310871727613227 3.945929360372325
90 8 2 0.0 5.238959767690728 5.747354238763601 4.0714743655099355
91 8 1 0.0 5.426474099004723 5.989035423043332 3.7301375051000543
92 8 1 0.0 5.603163988860598 6.403060639709279 3.548114304833395
93 8 1 0.0 5.689213083829409 5.24592749034658 4.543780615024364
94 8 1 0.0 5.92547142468755 5.482227354193897 4.17839954608186
95 8 1 0.0 6.016462608282944 5.9190802630732415 4.137570004802532
96 8 1 0.0 6.230032852380732 6.286280983743131 3.889742074909596
97 9 5 8.861242189860825 1.217026910975525 4.042552336360179 5.526086274356402
98 9 6 -8.861242189860825 0.8049038935865713 3.9494902828211518 5.671433238070326
99 9 3 0.0 0.3102805738513723 3.9418763118110536 5.577790924052794
100 9 3 0.0 0.3059384181358027 4.1640796895778855 5.214119337477215
101 9 1 0.0 10.308672236480003 3.8372826562360816 5.596419370181473
102 9 2 0.0 9.993539482038118 4.122794750292741 5.759725932145111
103 9 1 0.0 9.576465925712478 3.9498219963724486 5.680907491583423
104 9 1 0.0 9.09217606401039 3.982594636253576 5.6934743756712125
105 9 1 0.0 10.44258587972666 4.458957355524625 5.157578058596607
106 9 1 0.0 10.001210154231305 4.273342226754172 5.031508840562046
107 9 1 0.0 9.592014739767892 4.422227081099428 5.137241162291134
108 9 1 0.0 9.103470811353779 4.3865235475187765 5.093453162119231
109 10 5 8.861242189860825 9.194197737094324 4.802764689613722 6.39541833624668
110 10 6 -8.861242189860825 9.125790256803636 4.543228170085239 6.038216882158298
111 10 3 0.0 9.28963727699775 4.16857763384922 5.744498967099406
112 10 3 0.0 9.684628576814783 4.1278246260386355 5.899325591789371
113 10 1 0.0 9.32311650306041 3.752221880284661 5.371057411396026
114 10 2 0.0 9.503852233748193 3.7884092140635115 4.9545001950597065
115 10 1 0.0 9.517798215556407 3.37431254222584 4.758511094541767
116 10 1 0.0 9.642720275652392 3.0796571646020405 4.393351773167338
117 10 1 0.0 10.03208343482115 4.00350311730028 5.5477425039485135
118 10 1 0.0 10.071725224152912 3.543945909950261 5.367757347526946
119 10 1 0.0 10.207854968889887 3.4106655470488474 4.96218127772964
120 10 1 0.0 10.318094044208575 3.046622375854912 4.65043263372387
121 11 5 8.861242189860825 6.2035428008479965 5.653449059988832 9.731126708699492
122 11 6 -8.861242189860825 5.7792180576147665 5.74068018675726 9.62171505514148
123 11 3 0.0 5.312741179739772 5.852377251409175 9.774692740151789
124 11 3 0.0 5.360737873080517 5.788436039556987 10.193331077078632
125 11 1 0.0 4.77778470685866 6.017692710180853 9.79528251537971
126 11 2 0.0 4.418023918760061 5.7385269819739895 9.80683731942554
127 11 1 0.0 4.036575110582969 5.984884467527575 9.869183671439542
128 11 1 0.0 3.5574285457292456 6.017764508759381 9.940640755940334
129 11 1 0.0 4.946728905190586 5.597971371366425 10.42160978440959
130 11 1 0.0 4.551231134664938 5.877277723598753 10.525187918843365
131 11 1 0.0 4.119885283267039 5.75805500623353 10.54785090795313
132 11 1 0.0 3.6520317108143305 5.875584314132594 0.09507318562561018
133 12 5 8.861242189860825 4.177243062702066 2.0180834101425944 5.260880291760962
134 12 6 -8.861242189860825 4.427295717777545 2.347444942456297 5.4300734294858914
135 12 3 0.0 4.734908754151919 2.7369786896047965 5.34571251649915
136 12 3 0.0 4.804257862905641 2.680560279986294 4.928989727992415
137 12 1 0.0 5.039976618375896 3.203845522840292 5.399569046954687
138 12 2 0.0 5.491300768143457 3.2158453814017514 5.460045134677222
139 12 1 0.0 5.635134048044042 3.650751436963107 5.444202723668627
140 12 1 0.0 5.9894077663515635 3.9827947770110064 5.446651293512493
141 12 1 0.0 5.274624572732654 2.8074979188002342 4.779211967020466
142 12 1 0.0 5.414760689013084 3.279054976888667 4.723044674921874
143 12 1 0.0 5.821170603815638 3.460568555968439 4.7747236134689155
144 12 1 0.0 6.117202657602913 3.8522908074755597 4.746687885117896
145 13 5 8.861242189860825 2.8485561643329826 3.142291550380364 1.132087892639301
146 13 6 -8.861242189860825 2.9375507441498154 3.5103685345016302 1.3692185858339023
147 13 3 0.0 3.0264315332037324 3.717647662006089 1.8193459595772827
148 13 3 0.0 2.9258170687682674 3.386663777676426 2.0682969912081215
149 13 1 0.0 3.1794123710730524 4.064767257095496 2.2317006825767822
150 13 2 0.0 2.8938203016745017 4.320366975590671 2.477872971344165
151 13 1 0.0 3.126529382423282 4.5268465549727654 2.8144661064386196
152 13 1 0.0 3.144062286323748 4.805675915774602 3.2116001234700726
153 13 1 0.0 2.7079776196754444 3.519313655980981 2.509592093999486
154 13 1 0.0 2.9695136017361334 3.704140261814091 2.8872122876923436
155 13 1 0.0 2.840872629145351 3.992939827740802 3.2047547601601334
156 13 1 0.0 2.940706359882907 4.242028647935012 3.616889795216327
157 14 5 8.861242189860825 7.663770947645274 2.03121583696389 6.16862687715447
158 14 6 -8.861242189860825 7.628688678821718 1.682727923277066 5.89121549389861
159 14 3 0.0 7.776644382274934 1.217302848519142 5.768872968351626
160 14 3 0.0 8.10848874719645 1.1790646269405936 6.033575394048843
161 14 1 0.0 7.810522708184279 0.7035722382635922 5.547819384914788
162 14 2 0.0 8.08612388506431 0.5837957591653947 5.205485588288874
163 14 1 0.0 8.060855193064647 0.1306225907234686 5.141627588270126
164 14 1 0.0 8.204478318354004 10.271232851876565 4.920837938731031
165 14 1 0.0 8.495227609696789 0.9082070442219059 5.841584233682924
166 14 1 0.0 8.481508215441835 0.4141441870830306 5.812043985919635
167 14 1 0.0 8.6778117153911 0.14390852591892733 5.513339224872234
168 14 1 0.0 8.781068221761274 10.237913621274489 5.3564358101063565
169 15 5 8.861242189860825 0.38211982846638826 1.2674720576961274 1.809985728200382
170 15 6 -8.861242189860825 0.3576178458751915 0.8355302797705558 1.6983720172902512
171 15 3 0.0 0.09181464933521255 0.46259637500220674 1.4892116784629985
172 15 3 0.0 10.265325211439034 0.6607664303762696 1.4474460969708847
173 15 1 0.0 10.484356214974067 10.527002320361586 1.2541972693541203
174 15 2 0.0 10.26750558644369 10.189452044097477 1.4699064667823631
175 15 1 0.0 10.151333534128428 9.865615655294414 1.1670594441697677
176 15 1 0.0 9.93074705498405 9.448406243237592 1.0528379297437667
177 15 1 0.0 9.86241802449825 0.35587284791323814 1.5145064103256656
178 15 1 0.0 9.714247045657576 0.035247586436483916 1.1675139643657748
179 15 1 0.0 9.509330075778944 10.188469203230833 1.2178389021499043
180 15 1 0.0 9.295747334279254 9.793172443863549 1.0178634390883265
181 16 5 8.861242189860825 3.3902584599101635 3.9214353387655443 7.541391439391575
182 16 6 -8.861242189860825 3.0773682475167106 4.015721745536922 7.846090398395467
183 16 3 0.0 2.966735615772644 4.130172187130619 8.323731059528248
184 16 3 0.0 3.3473475412888734 4.0580136680157315 8.501432856265422
185 16 1 0.0 2.708645629657494 4.3014690773394255 8.790612738438547
186 16 2 0.0 2.524597049161097 4.026461061297989 9.103648763658242
187 16 1 0.0 2.3840154018406747 4.276180911588769 9.461362431785266
188 16 1 0.0 2.1955382076343732 4.313476015760533 9.90729299265413
189 16 1 0.0 3.321708678116648 3.868369527557015 8.973840659151689
190 16 1 0.0 3.209669465357963 4.150444090971214 9.365044072096886
191 16 1 0.0 3.0012177564034714 4.035993757986339 9.744828112365983
192 16 1 0.0 2.841194616663362 4.1573385215650465 10.193754993226595
193 17 5 8.861242189860825 3.919782075819246 6.035329921233033 4.706140974472539
194 17 6 -8.861242189860825 4.175640049409131 6.339471735261482 4.910263784176637
195 17 3 0.0 4.3784213791206925 6.800265076144237 4.9049427623303075
196 17 3 0.0 4.286249762708826 6.911090049176094 4.503853698941441
197 17 1 0.0 4.623621085850524 7.282506486203757 5.050723055489698
198 17 2 0.0 5.058160118179795 7.390678853182112 4.967240061055067
199 17 1 0.0 5.1326419252721776 7.825891167699227 5.090223691113589
200 17 1 0.0 5.418548461478796 8.217172936377926 5.12063212254115
201 17 1 0.0 4.64296631409519 7.200288222738488 4.282699675875811
202 17 1 0.0 4.694100985819684 7.681464180841966 4.387646793567036
203 17 1 0.0 5.064380437989333 7.933731260805356 4.381215728553659
204 17 1 0.0 5.278237552734247 8.37406529406971 4.428527195256981
205 18 5 8.861242189860825 9.98011619022006 7.799024619465393 4.9199909373033535
206 18 6 -8.861242189860825 9.566190512424011 7.63745371044876 4.966810182835008
207 18 3 0.0 9.117807099735124 7.543814295759333 4.757853107824235
208 18 3 0.0 9.165926781786599 7.7588920326135735 4.393056888547543
209 18 1 0.0 8.60494770469119 7.346011272482551 4.649313840607425
210 18 2 0.0 8.21670508764107 7.574209040005599 4.717784937858032
211 18 1 0.0 7.86612117677786 7.331204284932321 4.550089135844103
212 18 1 0.0 7.394940683464993 7.28001366642636 4.444556648209712
213 18 1 0.0 8.737512390952563 7.977784783001415 4.224716587083908
214 18 1 0.0 8.377364223791396 7.717739595712098 4.006018729117752
215 18 1 0.0 7.935932206433271 7.794651713440055 4.002983745221228
216 18 1 0.0 7.485799722969185 7.674810313372401 3.845230496697556
217 19 5 8.861242189860825 0.8716693408411904 0.8119671561085191 5.150164604632033
218 19 6 -8.861242189860825 0.9332493612948318 1.1106075160677702 5.476743084657694
219 19 3 0.0 0.7298693652401926 1.4407179115062063 5.797901593782493
220 19 3 0.0 0.3334772778155962 1.4529345235140307 5.641778931404902
221 19 1 0.0 0.6421501203617563 1.7924813706836937 6.225101044268647
222 19 2 0.0 0.6538169404666221 2.246937710311141 6.196323229268294
223 19 1 0.0 0.5219512420246781 2.4278665153502015 6.5962713216990725
224 19 1 0.0 0.4115154295355959 2.8093198267671173 6.875674158436332
225 19 1 0.0 0.11289375590121165 1.9112365628178132 5.674847559631053
226 19 1 0.0 10.482280138838735 2.087010246597225 6.101664341477179
227 19 1 0.0 10.449853715170782 2.511897343142928 6.240251473515422
228 19 1 0.0 10.301547916210462 2.837665796988648 6.5775163630802895
229 20 5 8.861242189860825 7.449185989864228 10.198420502693502 2.331237356273871
230 20 6 -8.861242189860825 7.731858848904883 9.91306168811676 2.135538432320079
231 20 3 0.0 8.189116459953587 9.829540949778076 1.9420989137093176
232 20 3 0.0 8.334883629673302 10.22998664688779 1.9353613928103373
233 20 1 0.0 8.654336436467986 9.587877684250024 1.7443596733535205
234 20 2 0.0 8.764381115616237 9.553940237860806 1.303640646899172
235 20 1 0.0 9.186610834650994 9.379723956788006 1.2655221037678275
236 20 1 0.0 9.570627450494904 9.247483617164647 0.9994161587384619
237 20 1 0.0 8.637931676676137 10.332436829830948 1.5385525915400027
238 20 1 0.0 9.107758565468078 10.177369740749452 1.519165810663776
239 20 1 0.0 9.355486497965686 10.072195000741704 1.1608976758062644
240 20 1 0.0 9.787733043691048 9.936880536665141 0.9692724666618068
241 21 5 8.861242189860825 10.334301526672437 5.996238009651634 9.81315749143841
242 21 6 -8.861242189860825 10.215544743236254 6.367879325392608 10.030898681739517
243 21 3 0.0 10.068152349005915 6.5819254897392145 10.46210490340906
244 21 3 0.0 9.989352233658895 6.2303219851519795 0.14121239685663056
245 21 1 0.0 9.948667647346534 6.9497473533297525 0.3189975946743252
246 21 2 0.0 9.530396897108222 7.0962366313077165 0.42428440718047833
247 21 1 0.0 9.55118263205097 7.357607801911442 0.8002303287670686
248 21 1 0.0 9.338446730889512 7.618254000256593 1.1503383667969385
249 21 1 0.0 9.597309508794803 6.2769632480060364 0.46357628755072594
250 21 1 0.0 9.635195581571796 6.525925759776431 0.8898875213264507
251 21 1 0.0 9.319404644902049 6.751766622404611 1.1136259847477372
252 21 1 0.0 9.182788595134426 7.0098272005484565 1.509363390376075
253 22 5 8.861242189860825 8.241197960767972 0.5749800981963376 6.067332085555504
254 22 6 -8.861242189860825 7.831024811817781 0.4860538180822235 5.914094454025634
255 22 3 0.0 7.344565594683674 0.4062856364827474 6.016434823501975
256 22 3 0.0 7.368498622083592 0.3718466892531377 6.440570871725699
257 22 1 0.0 6.788750029037839 0.3470252656426501 5.977849423880857
258 22 2 0.0 6.568068481461927 10.497121806338964 5.97072985288714
259 22 1 0.0 6.116312419631259 0.02496410393955159 5.983654321999191
260 22 1 0.0 5.6578971095834 10.415278611566007 6.008027538506443
261 22 1 0.0 7.040227305523147 0.036220049850984024 6.639025111262695
262 22 1 0.0 6.558300746524957 0.13782432771839803 6.689841617164561
263 22 1 0.0 6.2083736345357625 10.406691951141598 6.678409997070515
264 22 1 0.0 5.724520004192153 10.331008398757039 6.723409614416174
265 23 5 8.861242189860825 6.179442518159358 7.794951622066799 1.9199634062124873
266 23 6 -8.861242189860825 6.188330457718234 7.690779000363896 1.4855664258483565
267 23 3 0.0 6.449624551958792 7.673181757237411 1.055572452280909
268 23 3 0.0 6.790820281855338 7.899806382086682 1.1733730108616536
269 23 1 0.0 6.625647287427665 7.5559657762276 0.5367198932391424
270 23 2 0.0 6.5822027419321305 7.832203766527448 0.17713682058844293
271 23 1 0.0 6.803047057609817 7.650866933276209 10.367292879435663
272 23 1 0.0 6.96110351376533 7.672534541636372 9.908689222599618
273 23 1 0.0 6.987153284502458 8.185999325297363 0.8000925065878659
274 23 1 0.0 7.260820656931726 7.992072446666707 0.4358707474450339
275 23 1 0.0 7.3048312485088625 8.130332231736853 0.011920030272738358
276 23 1 0.0 7.5174183434736905 8.084162373311118 10.11937365919411
277 24 5 8.861242189860825 6.417951888440784 2.724893816086439 5.848216507035115
278 24 6 -8.861242189860825 6.605600065179264 2.329443451111932 5.758556941233206
279 24 3 0.0 6.939874035279857 2.0662457621284993 5.489360036752606
280 24 3 0.0 7.045089412807689 2.3627849304385222 5.2018805343888355
281 24 1 0.0 7.288698889560092 1.6691241039693905 5.303491326939577
282 24 2 0.0 7.201057268376865 1.3844171121227058 4.958881813163305
283 24 1 0.0 7.5755850284816 1.1363925526733258 4.867804667960274
284 24 1 0.0 7.815521883104932 0.8090710710672272 4.601234609400555
285 24 1 0.0 7.142341243607514 2.175015377022003 4.738117599519346
286 24 1 0.0 7.566696451011003 1.943195385039209 4.631622979526095
287 24 1 0.0 7.642678989284785 1.6162936854425412 4.334724270186025
288 24 1 0.0 7.958196366836852 1.316475565106259 4.105758813314956
289 25 5 8.861242189860825 8.673290171264915 0.8113496542154524 3.3931151943530025
290 25 6 -8.861242189860825 8.274580246283211 0.9543466814868424 3.5352908358819324
291 25 3 0.0 7.7733874596757 0.9361438749315407 3.491092052628576
292 25 3 0.0 7.744602854668135 0.7156570086561238 3.1274889632519165
293 25 1 0.0 7.222582955823939 0.9810485777381223 3.583447528008737
294 25 2 0.0 6.95126809915921 1.296796309437367 3.3985517183349883
295 25 1 0.0 6.515790499250322 1.2066903927398418 3.509558273597078
296 25 1 0.0 6.040124669794522 1.2989705570658037 3.4780141361388948
297 25 1 0.0 7.3530083082356725 0.8548470907365805 2.83241064178843
298 25 1 0.0 6.88707020131006 0.7206870827587886 2.932718804940005
299 25 1 0.0 6.505432502227276 0.9370974772249037 2.8415808944124135
300 25 1 0.0 6.013800576292976 0.949434025598253 2.845208598349607
301 26 5 8.861242189860825 4.414887552294481 1.5843432790776544 9.986147864232729
302 26 6 -8.861242189860825 4.532393189364917 1.509357168317841 10.410648954433121
303 26 3 0.0 4.719273030720592 1.190325300987956 0.20384738363427468
304 26 3 0.0 4.715654137153274 0.8323318970060167 10.521117818284283
305 26 1 0.0 4.94620058743132 0.9672916999476004 0.6650322320871458
306 26 2 0.0 4.715419268894075 0.745238736113304 0.9889570786515096
307 26 1 0.0 5.010665381211278 0.5687928876096388 1.2919073505854721
308 26 1 0.0 5.109071752850285 0.30068493782729516 1.6845941926520682
309 26 1 0.0 4.611619739144248 0.41311810136265253 0.24320137626039195
310 26 1 0.0 4.947180981845563 0.20056527988194112 0.53880060714269
311 26 1 0.0 4.883298290532424 10.516019452497703 0.9161396297832697
312 26 1 0.0 5.067221797261816 10.247667724707146 1.2849577355260307
313 27 5 8.861242189860825 10.120406976519721 8.451895907971124 3.998252196872657
314 27 6 -8.861242189860825 9.853461977717826 8.269879707749656 4.306865446107241
315 27 3 0.0 9.486322138953325 7.942817392397077 4.4151136083233125
316 27 3 0.0 9.367829756287174 7.8392213785655755 4.019035788371264
317 27 1 0.0 9.130341185980187 7.6012444550357445 4.680701742871742
318 27 2 0.0 8.694609634447946 7.6974754096710285 4.772202892178289
319 27 1 0.0 8.491383894605633 7.3270976849268195 4.949972156215439
320 27 1 0.0 8.098560259344607 7.094981759645963 5.116045728644065
321 27 1 0.0 8.86817329559881 7.751527983043992 3.96959215159977
322 27 1 0.0 8.657879064333633 7.331414821690482 4.125925842066719
323 27 1 0.0 8.241578871006977 7.263713588116576 4.277245381248801
324 27 1 0.0 7.893369174793998 6.955129511240517 4.436597746218096
325 28 5 8.861242189860825 9.574747590658953 0.43496255472783574 3.1663556642915025
326 28 6 -8.861242189860825 9.993755138660715 0.32221756962868753 3.059805628232955
327 28 3 0.0 10.41023339747227 0.06505243252265203 3.1776658681338557
328 28 3 0.0 10.308381366191313 10.496330753872373 3.574566383201318
329 28 1 0.0 0.35768833657448373 10.353629959674858 3.1585480721292356
330 28 2 0.0 0.747886575612458 10.522348782171031 3.3221761111149184
331 28 1 0.0 1.0757070236026722 10.203432401853059 3.292036970419814
332 28 1 0.0 1.528431399722409 10.048530030572229 3.374587181118838
333 28 1 0.0 0.15708538497621832 10.481813534577851 3.893613660544155
334 28 1 0.0 0.4875695488706396 10.113193713868938 3.8859585957891998
335 28 1 0.0 0.9229788297643353 10.122538421445537 3.991402161175898
336 28 1 0.0 1.3487320696696996 9.884981008490158 4.05596186625209
337 29 5 8.861242189860825 0.18762353039191382 7.98114992970765 3.1573827956462446
338 29 6 -8.861242189860825 10.494664336384687 7.887522136947814 3.5214593723144936
339 29 3 0.0 10.055378184134826 7.9259154477316285 3.764425859887448
340 29 3 0.0 9.862261434320043 8.21022222184376 3.512382614739766
341 29 1 0.0 9.627485999592064 7.851997248861785 4.118510519133352
342 29 2 0.0 9.532277225647041 8.121094524503796 4.473498952129506
343 29 1 0.0 9.135281944503602 7.989937906485098 4.661315244972279
344 29 1 0.0 8.776219294300661 8.048124516727531 4.98296252735722
345 29 1 0.0 9.55798396301399 8.534013011072487 3.7621147288323495
346 29 1 0.0 9.11101116071121 8.400429342073085 3.928035409276725
347 29 1 0.0 8.885973588769446 8.551330051229069 4.2849303211489636
348 29 1 0.0 8.477754478576953 8.552756516020686 4.55919738904327
349 30 5 8.861242189860825 5.881416498659798 7.45289937891927 0.6267246532318408
350 30 6 -8.861242189860825 5.513189175426534 7.420097903653866 0.37579763440682035
351 30 3 0.0 5.089610544853666 7.634652338630675 0.20838609923446497
352 30 3 0.0 5.080314055730256 7.97607334167221 0.46332823435876413
353 30 1 0.0 4.628202316334248 7.759457688427382 10.464577920487963
354 30 2 0.0 4.202157647052682 7.665784755911972 0.047226980035303096
355 30 1 0.0 3.9072212260632093 7.855038313277116 10.300321904193067
356 30 1 0.0 3.4551831446075276 7.962258518975877 10.159133933559364
357 30 1 0.0 4.610415718939208 8.118679374669904 0.5998949066349317
358 30 1 0.0 4.308364847267193 8.360338129552279 0.2908232775070808
359 30 1 0.0 3.8607964720515664 8.352797111063191 0.27051088039331694
360 30 1 0.0 3.4425555462291846 8.519056141100354 0.07226919921140294
361 31 5 8.861242189860825 4.652412744495603 3.3901314565295126 8.230467217660602
362 31 6 -8.861242189860825 4.229114076727704 3.5301555466104335 8.259504421287417
363 31 3 0.0 3.753292208490326 3.488376785995545 8.100359302532413
364 31 3 0.0 3.815543720343669 3.2338814346045157 7.764194040076615
365 31 1 0.0 3.1957294086871357 3.5202242124945147 8.055181505648905
366 31 2 0.0 2.9714803472793103 3.806470550444405 7.780827292225606
367 31 1 0.0 2.5235539726719423 3.710242773239525 7.794408506559029
368 31 1 0.0 2.0677756212843885 3.7805569550233518 7.642452417854442
369 31 1 0.0 3.5035497723524065 3.32948182076056 7.372643626813445
370 31 1 0.0 3.0292865490872587 3.1872386037331704 7.373109554618752
371 31 1 0.0 2.6770924255220914 3.379132281153623 7.173302080229692
372 31 1 0.0 2.1986654777096515 3.3725833266352208 7.05958282917218
373 32 5 8.861242189860825 5.148944755166357 0.0737167506040286 1.9357405987708658
374 32 6 -8.861242189860825 5.001289052746589 0.46053362436054723 2.103675606591427
375 32 3 0.0 4.670440145040695 0.7000856833559774 2.3980102719909273
376 32 3 0.0 4.400642853947555 0.37887914913029863 2.473415857852832
377 32 1 0.0 4.407918185604207 1.080849669366116 2.7142895400461144
378 32 2 0.0 4.051946126575073 1.3315337404892376 2.580363322930764
379 32 1 0.0 3.8936250729163255 1.5728814817863077 2.936408240457541
380 32 1 0.0 3.570991387619278 1.875792707640752 3.1362104852169166
381 32 1 0.0 3.9132647443088904 0.5233792381130522 2.510479129051378
382 32 1 0.0 3.735121568408653 0.7475420781542114 2.914428364532431
383 32 1 0.0 3.4025168036099753 1.045944032145657 2.9478537323960725
384 32 1 0.0 3.110362328760941 1.325558824312137 3.2277262606779202
385 33 5 8.861242189860825 6.46052240143685 7.513060876108227 8.742910997871542
386 33 6 -8.861242189860825 6.2425723423132995 7.9023409050708295 8.767211160637457
387 33 3 0.0 5.83529389045681 8.155217157800706 8.92101931196126
388 33 3 0.0 5.590026712172048 7.826373888363257 9.036588917358037
389 33 1 0.0 5.475522919485695 8.559021775964663 9.067437365582354
390 33 2 0.0 5.131205940996832 8.708691963278293 8.80948485966521
391 33 1 0.0 4.878860418993419 9.005830595802403 9.050550498328189
392 33 1 0.0 4.4926419274348595 9.29615696718759 9.098659930921206
393 33 1 0.0 5.093352031802053 7.898295181280877 8.947521678446416
394 33 1 0.0 4.813571667796668 8.188267994372442 9.235267521866694
395 33 1 0.0 4.452511481894502 8.430039028172938 9.125863590032193
396 33 1 0.0 4.081777505870924 8.723413112350565 9.261345201382884
397 34 5 8.861242189860825 10.345802211164903 8.614361869212923 4.091371240275502
398 34 6 -8.861242189860825 9.947277067535834 8.428672737306789 4.170925770749316
399 34 3 0.0 9.502640809479324 8.277067716863012 3.9898357385754957
400 34 3 0.0 9.524440431653737 8.450046440549214 3.600922694419619
401 34 1 0.0 9.004512553625958 8.029461364420097 3.922821541716723
402 34 2 0.0 8.601244134341917 8.23415393438573 3.977322695504016
403 34 1 0.0 8.266933438518073 7.9470179242712735 3.8513403875763124
404 34 1 0.0 7.798800116988082 7.848064686186262 3.7687081142584864
405 34 1 0.0 9.07595935093642 8.614196025040535 3.4228468181958243
406 34 1 0.0 8.732193123090552 8.303373929941564 3.2485672708823827
407 34 1 0.0 8.286117777914397 8.345732552646602 3.2516404513231585
408 34 1 0.0 7.8430936521027945 8.174173512669185 3.1245010750057274
409 35 5 8.861242189860825 5.549674320912728 7.824499718292663 5.095732515845166
410 35 6 -8.861242189860825 5.628296037507099 7.987906858665329 4.687384136043658
411 35 3 0.0 5.509749632382393 7.990707220924306 4.198080557722187
412 35 3 0.0 5.2495561594689955 7.65327459649762 4.1886572400776325
413 35 1 0.0 5.45813641465733 8.12748510924631 3.657192905198609
414 35 2 0.0 5.694027314580926 7.939052804453139 3.3161011407147662
415 35 1 0.0 5.534837251286788 8.09656229481335 2.9161867051759405
416 35 1 0.0 5.5303260215923284 8.09933106507955 2.430655423623723
417 35 1 0.0 5.278191093616621 7.38281408852891 3.757585856524296
418 35 1 0.0 5.069030863948363 7.5365494443276315 3.335950476695432
419 35 1 0.0 5.197113352427613 7.460232071352464 2.913389894462957
420 35 1 0.0 5.115397144064053 7.506755652222619 2.4306629333625915
421 36 5 8.861242189860825 2.765994092993699 8.469867366808101 4.838364550936825
422 36 6 -8.861242189860825 3.173233102274504 8.292423501865478 4.8863409122593096
423 36 3 0.0 3.465104902493522 7.945315457535749 5.1049866114017135
424 36 3 0.0 3.1906755357252323 7.798568681219984 5.396198088829599
425 36 1 0.0 3.88615762029619 7.598151040400034 5.23196316016578