Lipid soup setup

8801 atoms
2816 bonds
2048 angles
0 dihedrals
0 impropers

6 atom types
2 bond types
3 angle types
0 dihedral types
0 improper types

0 14.917862165963433 xlo xhi
0 14.917862165963433 ylo yhi
0 13.182494109956313 zlo zhi

Masses

1 1
2 1
3 1
4 1
5 1
6 1

Atoms

1 1 5 8.861242189860825 8.06204483501694 5.801339762544724 0.36114481039671853
2 1 6 -8.861242189860825 7.649218738305949 5.910145207115035 0.22935840655414153
3 1 3 0.0 7.24584912874756 6.205661783474891 0.2880269256783808
4 1 3 0.0 7.353005469767902 6.396057057656436 0.653974157445629
5 1 1 0.0 6.763340152717826 6.479897444658969 0.2111409203464848
6 1 2 0.0 6.365130938258814 6.366952093008899 0.4013187608424544
7 1 1 0.0 6.053498371449863 6.688514025891957 0.30351621393267925
8 1 1 0.0 5.608906009227443 6.878594921598983 0.3479631169584806
9 1 1 0.0 6.956687709498155 6.494225691664945 0.9590750190219176
10 1 1 0.0 6.644830145097144 6.869092088903856 0.873173921427903
11 1 1 0.0 6.209394254859639 6.902364047355071 0.9735505780937259
12 1 1 0.0 5.79584107949924 7.168322338187276 0.9839072158896562
13 2 5 8.861242189860825 5.853982980941526 9.13726317218171 11.929668088861733
14 2 6 -8.861242189860825 6.262537968065906 9.211177056310966 11.764588631144376
15 2 3 0.0 6.664323101668508 9.513367554545857 11.737594314196963
16 2 3 0.0 6.503063373229142 9.858973566632772 11.92786255296184
17 2 1 0.0 7.178500815441214 9.719547034789716 11.653672515979384
18 2 2 0.0 7.300104777197593 9.9846153547408 11.303749518451935
19 2 1 0.0 7.730835991098934 10.128842384546127 11.364998655605637
20 2 1 0.0 8.114124177750233 10.395246908448716 11.231254727647482
21 2 1 0.0 6.673871796508073 10.298920075344746 11.7353451886748
22 2 1 0.0 7.126165047599132 10.472831129287643 11.83705416150817
23 2 1 0.0 7.394169564578944 10.72709860750584 11.583462877492943
24 2 1 0.0 7.812223621516068 10.980637561004079 11.530395884013739
25 3 5 8.861242189860825 5.947864790018142 1.3025111673292482 2.394952043677332
26 3 6 -8.861242189860825 5.686292840655851 1.4697899507112295 2.716245664947018
27 3 3 0.0 5.314239279209275 1.3943158030621012 3.0469402134453656
28 3 3 0.0 5.180239828368455 1.0124055737653552 2.913377710389637
29 3 1 0.0 4.958047667960445 1.4412682043491833 3.4768873912702305
30 3 2 0.0 4.528241417316979 1.588844108832071 3.445538048709423
31 3 1 0.0 4.321052511690297 1.540407042707927 3.851504647788665
32 3 1 0.0 3.927751997576566 1.5666351641960392 4.135045533533493
33 3 1 0.0 4.677076444394924 0.9436514204321297 2.9568617186070805
34 3 1 0.0 4.460800124179919 0.8501659138218609 3.392343024967005
35 3 1 0.0 4.047962883672282 0.9560343800096275 3.53070556197253
36 3 1 0.0 3.6969737736682537 0.9325114155612177 3.8743923613431654
37 4 5 8.861242189860825 10.438410492007943 3.786221364320234 12.14542290550501
38 4 6 -8.861242189860825 10.109080414690009 3.7644817453677457 12.446588568011705
39 4 3 0.0 9.931471729789223 3.90425471594263 12.89647494888965
40 4 3 0.0 10.282830736059704 4.08561642534624 13.055550394400472
41 4 1 0.0 9.599524509640029 4.010157436900116 0.15276008224283036
42 4 2 0.0 9.57546107099586 3.755853773003961 0.5299144795455017
43 4 1 0.0 9.306267795239314 3.9643571920038876 0.8367427313579174
44 4 1 0.0 9.10556309332989 3.992730699045466 1.277969667726826
45 4 1 0.0 10.339355391678362 4.020060613886517 0.3753498066340918
46 4 1 0.0 10.075404091008485 4.277527707208034 0.7058030734542552
47 4 1 0.0 9.941913545178116 4.156487154236179 1.1160668540146328
48 4 1 0.0 9.720300655977384 4.2694639482884185 1.5403206372685654
49 5 5 8.861242189860825 10.446158777591096 0.5986434732843009 10.986803496726427
50 5 6 -8.861242189860825 10.235201023855536 0.992198144636403 10.971208179245876
51 5 3 0.0 10.185761470181623 1.4581703678233022 11.155340473278596
52 5 3 0.0 10.432647737435575 1.421893947235715 11.500856624334387
53 5 1 0.0 10.054395924734365 1.998252381357011 11.22595265180997
54 5 2 0.0 9.721703561005247 2.15340555736241 11.495652716783823
55 5 1 0.0 9.738098215390208 2.6112659071798747 11.50897138526415
56 5 1 0.0 9.582252898324379 3.0385011584908224 11.679121083570685
57 5 1 0.0 10.267004022458787 1.6896845658924584 11.901657981356848
58 5 1 0.0 10.323458765954069 2.1806702870060484 11.931738513604769
59 5 1 0.0 10.06422818133482 2.482241795942822 12.138235583620487
60 5 1 0.0 9.981622776406471 2.947261057154417 12.275351356011333
61 6 5 8.861242189860825 6.45687344213234 3.9703016396707307 9.44195507389828
62 6 6 -8.861242189860825 6.649033134165425 3.947359157118156 9.039239339932486
63 6 3 0.0 6.841932650001389 4.191208240470084 8.643251353632845
64 6 3 0.0 6.717896872937664 4.587404705300212 8.739655220536374
65 6 1 0.0 7.118207104681481 4.32221334639102 8.173739207310634
66 6 2 0.0 6.926754903502222 4.375684071615978 7.763883405640503
67 6 1 0.0 7.2421482721875 4.526462034944478 7.467445721933919
68 6 1 0.0 7.371667055023549 4.686191741884706 7.027582165519729
69 6 1 0.0 6.597620568172371 4.870445636446778 8.333191414828399
70 6 1 0.0 6.942929876409057 5.066909755231163 8.037687969000359
71 6 1 0.0 6.920717302954991 5.1575302711721545 7.599417008747854
72 6 1 0.0 7.12660749724494 5.346032569898406 7.194517746548405
73 7 5 8.861242189860825 1.1405203538968671 13.57020262541992 2.0142543035135607
74 7 6 -8.861242189860825 1.2324905479090846 13.205341250011893 1.7733200235112128
75 7 3 0.0 1.0801153750082053 12.757639595853927 1.600623412361433
76 7 3 0.0 0.7256969773680358 12.711610351119198 1.832828335506854
77 7 1 0.0 1.0294575574167646 12.281348723972934 1.309913318780314
78 7 2 0.0 1.1627473257141794 11.870752263717753 1.4553066695507941
79 7 1 0.0 1.029173795830091 11.55222363835912 1.1540096425178226
80 7 1 0.0 0.9846964210451108 11.089101573955647 1.0150551203071945
81 7 1 0.0 0.629541667620712 12.22994880523794 1.9690182586641587
82 7 1 0.0 0.4457743508292362 11.898074572016395 1.6508233161780472
83 7 1 0.0 0.5063818633245691 11.454234687788775 1.6398781104943434
84 7 1 0.0 0.4033235145982979 11.017101639356618 1.4394760746121797
85 8 5 8.861242189860825 12.691952442591244 4.28120192735991 7.570555488653296
86 8 6 -8.861242189860825 13.105255216680987 4.182250792459559 7.708472699193491
87 8 3 0.0 13.599042347007115 4.276538371130977 7.680846508946949
88 8 3 0.0 13.6003859854116 4.536579906106594 7.343167944313349
89 8 1 0.0 14.149241353137695 4.301182788302978 7.783828419909032
90 8 2 0.0 14.465978501330573 4.0491234209863824 7.574930128250792
91 8 1 0.0 14.88223152600724 4.188121351401076 7.707199801061381
92 8 1 0.0 0.44877283693253744 4.168698396348157 7.679911286206154
93 8 1 0.0 14.01196234804032 4.487243719656892 7.046583686513256
94 8 1 0.0 14.452097973443847 4.67508781322445 7.173682791873203
95 8 1 0.0 14.862299183493025 4.526482567080637 7.071514504120881
96 8 1 0.0 0.4325576804153677 4.584227310959259 7.0879785339385695
97 9 5 8.861242189860825 10.12641540385831 11.211382118603487 11.231784604605213
98 9 6 -8.861242189860825 10.433719432924219 11.349762242960267 11.525122024711129
99 9 3 0.0 10.539195362282317 11.505192332761313 11.992235928877397
100 9 3 0.0 10.14228873374188 11.56065453100817 12.13728520007838
101 9 1 0.0 10.801761443478782 11.642156960986712 12.467873723055316
102 9 2 0.0 10.896296550523878 12.067289576711563 12.601366099384643
103 9 1 0.0 11.070049698475396 12.058220140358452 13.025406027290776
104 9 1 0.0 11.234689861071155 12.282469013805153 0.24087510943419765
105 9 1 0.0 10.093754445166185 11.951464178525857 12.460864596490563
106 9 1 0.0 10.245454038224477 11.924074839165838 12.931391973352142
107 9 1 0.0 10.397583185850182 12.250415242133396 0.015629141582630623
108 9 1 0.0 10.554322022087801 12.398063299904834 0.4577832883580406
109 10 5 8.861242189860825 2.290940856717758 13.671622727339969 11.440082416066517
110 10 6 -8.861242189860825 2.3122081368886276 13.721695984512309 11.883559629507996
111 10 3 0.0 2.391893886415132 13.511458200982858 12.334036420978979
112 10 3 0.0 2.397008975182164 13.10129559749364 12.218318259675323
113 10 1 0.0 2.496727758781962 13.426690969393652 12.87787090249289
114 10 2 0.0 2.1834615505393975 13.321150508652227 0.00877803036908098
115 10 1 0.0 2.3915307943121697 13.23078778939593 0.40705436700219977
116 10 1 0.0 2.3801927091864483 13.088012729128137 0.8710105854529182
117 10 1 0.0 2.197071650283963 12.786528992194038 12.565792623972365
118 10 1 0.0 2.442067919213529 12.657851565786087 12.976375018826902
119 10 1 0.0 2.2794563095081783 12.55072400400201 0.19745006133983978
120 10 1 0.0 2.3561727352241153 12.39701604426955 0.6582708013242158
121 11 5 8.861242189860825 12.487475268089273 2.858777316076718 3.812072681133337
122 11 6 -8.861242189860825 12.085144311040361 2.664476496820406 3.8150154295028162
123 11 3 0.0 11.62184966875003 2.638122789945817 3.619714020101828
124 11 3 0.0 11.628026442213804 2.990974723745045 3.3807421000497673
125 11 1 0.0 11.1072719585883 2.470549250836935 3.474591806690301
126 11 2 0.0 10.72056252927427 2.6203198492443063 3.663057790590439
127 11 1 0.0 10.363137422736148 2.4484231118924873 3.433316465484411
128 11 1 0.0 9.885796481466489 2.414677201631035 3.351003149573167
129 11 1 0.0 11.17887188338648 3.230551992985077 3.3551628527770276
130 11 1 0.0 10.807553558633833 3.0643726531778115 3.072911044022898
131 11 1 0.0 10.365714655246105 3.1045131000184947 3.135792193106523
132 11 1 0.0 9.906409729378895 3.0325739177819826 2.975383214577418
133 12 5 8.861242189860825 6.044602150522585 5.170575766016006 5.288911068049982
134 12 6 -8.861242189860825 5.8360710425292766 5.340340720912533 5.645739183841881
135 12 3 0.0 5.85833341404352 5.472236149707961 6.131112304886301
136 12 3 0.0 6.233584773472092 5.297432334054767 6.232503929637749
137 12 1 0.0 5.754596443390044 5.698696681985164 6.632994597730542
138 12 2 0.0 5.5707241029927905 5.478039774185602 6.986542802976026
139 12 1 0.0 5.576711667893745 5.750281228901997 7.3552310329996065
140 12 1 0.0 5.498651099530733 5.829333171028781 7.827910608146142
141 12 1 0.0 6.253830724917679 5.1137121039343425 6.707507468611387
142 12 1 0.0 6.302081976691866 5.408874750956008 7.102108258430992
143 12 1 0.0 6.151435638990442 5.348275020963987 7.519744780530722
144 12 1 0.0 6.123207962914667 5.500571366403966 7.986517019131606
145 13 5 8.861242189860825 7.224788522402708 5.364424600804059 6.850255027548196
146 13 6 -8.861242189860825 6.886171056398179 5.205587237144059 6.605836184670351
147 13 3 0.0 6.389434760591496 5.1417609409132705 6.554277089520369
148 13 3 0.0 6.2642050056952145 5.260995076449542 6.943829329535981
149 13 1 0.0 5.87749377437547 5.043554655381009 6.348842136933556
150 13 2 0.0 5.642606910322719 4.657394826852835 6.405442400905445
151 13 1 0.0 5.220945258853266 4.7095351257851235 6.233497315297372
152 13 1 0.0 4.771098729392863 4.546338247649957 6.151195908582492
153 13 1 0.0 5.863098999111635 5.000590285720513 7.120166222983901
154 13 1 0.0 5.402166033544826 5.088125199216964 6.961934130809704
155 13 1 0.0 5.0568331213530255 4.804551839123873 6.928494033139976
156 13 1 0.0 4.582454099956076 4.724379286650044 6.826493017714657
157 14 5 8.861242189860825 6.258678444112527 9.554799759323362 9.512224010396308
158 14 6 -8.861242189860825 5.881310169394319 9.467516159679437 9.734949010342286
159 14 3 0.0 5.661600543962148 9.335758371711249 10.1683618040588
160 14 3 0.0 6.008231404487297 9.223963744190922 10.389719492153954
161 14 1 0.0 5.2908310118197726 9.245687507099303 10.578665058997398
162 14 2 0.0 5.1093493049688465 8.841126694922583 10.683019173839693
163 14 1 0.0 4.856620648203003 8.881585054605274 11.063247550921915
164 14 1 0.0 4.58345476649413 8.689626856303441 11.415811153443235
165 14 1 0.0 5.931830409023146 8.834667606681869 10.709723849554816
166 14 1 0.0 5.693747843694413 8.890593841188757 11.140244352203922
167 14 1 0.0 5.444155858735546 8.594061867570524 11.365098839808427
168 14 1 0.0 5.1810291462986315 8.477271128102448 11.76383629432723
169 15 5 8.861242189860825 6.370364469180863 12.729094021633317 7.092741771842574
170 15 6 -8.861242189860825 6.801547540026584 12.846164531784089 7.095447728351179
171 15 3 0.0 7.159348137992891 13.155367216813664 7.268223639925748
172 15 3 0.0 6.9125388829321 13.447172198994707 7.456864203644966
173 15 1 0.0 7.650563758914305 13.385837014197186 7.407946415044965
174 15 2 0.0 7.854834859040233 13.723881468115817 7.181023285365927
175 15 1 0.0 8.225757233065414 13.860235883689995 7.4132006687571845
176 15 1 0.0 8.604676460454089 14.157614829065585 7.474475660477735
177 15 1 0.0 7.094719712403782 13.922211469145218 7.426217495325816
178 15 1 0.0 7.469784785885895 14.079078963893302 7.708843988362447
179 15 1 0.0 7.780951452645821 14.38852105178507 7.618247020045528
180 15 1 0.0 8.1672182873904 14.656352626686461 7.7629241817599395
181 16 5 8.861242189860825 2.1845515418756705 7.859303679969075 8.617432551021874
182 16 6 -8.861242189860825 2.3842952493072844 8.07736883387543 8.95236792855731
183 16 3 0.0 2.642205276749444 8.05362946658707 9.384106210552899
184 16 3 0.0 2.602824792989742 7.636962654220059 9.46465534624293
185 16 1 0.0 2.9601720828997977 8.175877884922672 9.828947757658398
186 16 2 0.0 2.8025977966167797 8.258814596198746 10.248216988797815
187 16 1 0.0 3.1555706793858436 8.300505110751963 10.537620369191767
188 16 1 0.0 3.3353412423484565 8.358433835664957 10.984940668496352
189 16 1 0.0 2.5642059331079006 7.525577590528363 9.960531676380539
190 16 1 0.0 2.9562040129467033 7.53134550844677 10.262960496677888
191 16 1 0.0 2.9729581740753037 7.623110110132349 10.701236057132586
192 16 1 0.0 3.2319442552314985 7.654951117619656 11.118104934921565
193 17 5 8.861242189860825 8.523950214069881 11.318244820591913 12.201406228094497
194 17 6 -8.861242189860825 8.84922634582611 11.056397142726816 12.042463160180564
195 17 3 0.0 9.271973417308748 11.016531805392459 11.77195483796655
196 17 3 0.0 9.276561121485283 11.403985040893382 11.594446636578834
197 17 1 0.0 9.752892268756026 10.836753988508331 11.54761455511651
198 17 2 0.0 9.796600340040065 10.65910583272807 11.130450823222626
199 17 1 0.0 10.240829617098077 10.591787334182182 11.03983713377392
200 17 1 0.0 10.59961537746063 10.462311906700783 10.739374932345097
201 17 1 0.0 9.46280400635117 11.411237371770207 11.120049782587786
202 17 1 0.0 9.94814904940474 11.379804686283004 11.027253606549875
203 17 1 0.0 10.15645844415451 11.20492086915897 10.671150029627894
204 17 1 0.0 10.573021465929381 11.113825519380283 10.426110874801612
205 18 5 8.861242189860825 5.393288212782814 2.4989531428269003 4.296832313045662
206 18 6 -8.861242189860825 5.491420223608142 2.619213626557172 3.877858338154772
207 18 3 0.0 5.419701954267032 2.5474477932785886 3.3847201841132133
208 18 3 0.0 5.200217458478622 2.182413624998209 3.399781073396538
209 18 1 0.0 5.404324168016224 2.6094105750813865 2.8280733436555403
210 18 2 0.0 5.69044470472171 2.410424341239908 2.5347572016311357
211 18 1 0.0 5.553118262261112 2.497117197717591 2.1061454094528074
212 18 1 0.0 5.593887953496834 2.4395921509770178 1.6257316878316193
213 18 1 0.0 5.298713944210043 1.8664694014737835 3.0121355220702952
214 18 1 0.0 5.114393909105792 1.9407230460577154 2.558625350468777
215 18 1 0.0 5.289153634257274 1.8290972240198133 2.161402962820677
216 18 1 0.0 5.248455652167755 1.8056669111070975 1.6718501097494831
217 19 5 8.861242189860825 0.26439660709153223 1.3260993598555861 9.877825546655188
218 19 6 -8.861242189860825 14.797382712319601 1.3888837366748474 10.095908574494999
219 19 3 0.0 14.409472506961182 1.6926788886736421 10.199413464020983
220 19 3 0.0 14.556994056873847 2.0534169265575213 10.026915120189225
221 19 1 0.0 13.913920044354144 1.8968463544955352 10.362738202913148
222 19 2 0.0 13.840225651224806 2.126725077457718 10.749027927220832
223 19 1 0.0 13.409286928977338 2.2827961375270958 10.753017091795368
224 19 1 0.0 13.051014790435557 2.5398645297043245 10.956303980541286
225 19 1 0.0 14.4210533059284 2.4739845524077957 10.280754376140644
226 19 1 0.0 13.964857594902872 2.6640165056003813 10.250221036516681
227 19 1 0.0 13.734465471498833 2.89511649290881 10.55730274595073
228 19 1 0.0 13.332094306229752 3.148107068990174 10.68363767791143
229 20 5 8.861242189860825 4.6418404084362175 0.6925004735569398 7.403572808063235
230 20 6 -8.861242189860825 4.311748704020159 0.6145016971830948 7.11273380673876
231 20 3 0.0 3.8266870896860357 0.5031591635557738 7.036594759857465
232 20 3 0.0 3.715620942117476 0.40397964902466077 7.435941668010385
233 20 1 0.0 3.3198618898825027 0.43161571853691516 6.80868837567929
234 20 2 0.0 3.147283367820604 0.03182584225239912 6.674973939291616
235 20 1 0.0 2.7106977894531616 0.08972545600044829 6.54799780355401
236 20 1 0.0 2.2837259505479715 14.83190025520967 6.397672687246809
237 20 1 0.0 3.3701669545704216 0.030511257738462638 7.4671552346258485
238 20 1 0.0 2.890825073339183 0.10639697312507966 7.369014142728382
239 20 1 0.0 2.5878293962372325 14.737965425511648 7.204647357295879
240 20 1 0.0 2.123339810236807 14.639667515848602 7.076373249571359
241 21 5 8.861242189860825 5.389534268069316 14.065382844547262 5.299705607455321
242 21 6 -8.861242189860825 5.009789117941359 14.285235802748995 5.38390753650553
243 21 3 0.0 4.59357328451895 14.503828321959327 5.20373879751694
244 21 3 0.0 4.689794307673424 14.502701605930342 4.788539491756752
245 21 1 0.0 4.084945436787786 14.733022304711662 5.151783062388721
246 21 2 0.0 4.001479269479509 0.26170091987062527 5.118173961469497
247 21 1 0.0 3.555702900892437 0.3269474722922876 5.033861517762338
248 21 1 0.0 3.1787506766108273 0.61630500863596 4.934122461128792
249 21 1 0.0 4.516284824920838 14.909762489291992 4.535582419954673
250 21 1 0.0 4.039938121642707 0.04006498592260854 4.409356676248702
251 21 1 0.0 3.7974314844521238 0.4137214781065026 4.360794677763687
252 21 1 0.0 3.373865675969351 0.6312170769346324 4.237689147285886
253 22 5 8.861242189860825 9.45294727604418 10.597147945076465 11.590969941196155
254 22 6 -8.861242189860825 9.878302545551156 10.68158375265764 11.483382041168804
255 22 3 0.0 10.315642411044898 10.509624564416491 11.302708402847296
256 22 3 0.0 10.228631547147373 10.092421240761633 11.298157075041962
257 22 1 0.0 10.830702611558266 10.470792774038946 11.08559863905619
258 22 2 0.0 11.20805304761173 10.376515414339204 11.322692016891672
259 22 1 0.0 11.560138244063294 10.325317386292015 11.033733459445791
260 22 1 0.0 12.02490014111588 10.217835718222773 10.943109440968257
261 22 1 0.0 10.629750729560362 9.796964299688083 11.405860283047641
262 22 1 0.0 10.988788183173515 9.71005314182788 11.076167225245008
263 22 1 0.0 11.42332509420055 9.627257942818938 11.147648264029211
264 22 1 0.0 11.867649813539902 9.51227995810091 10.970948212886945
265 23 5 8.861242189860825 5.9746166672256065 13.245491027697952 9.418229734057034
266 23 6 -8.861242189860825 6.113226420006587 12.866023186889114 9.609078263937167
267 23 3 0.0 5.9971732853503 12.408367043447607 9.783897050861414
268 23 3 0.0 5.572045336974595 12.436374084057007 9.77240568558947
269 23 1 0.0 6.022362348904019 11.879513234887 9.967229339011794
270 23 2 0.0 5.98942632422646 11.75201407915165 10.403295876962533
271 23 1 0.0 5.977359407538171 11.29445152800898 10.42723690599037
272 23 1 0.0 5.932044171925146 10.881956060247553 10.679353270285711
273 23 1 0.0 5.338770302657831 12.188686654771393 10.151912048225613
274 23 1 0.0 5.290899765420603 11.69587734857916 10.154432805218295
275 23 1 0.0 5.2714757315957605 11.416188869572785 10.50398104588128
276 23 1 0.0 5.212925689906315 10.960569855580799 10.67962417260882
277 24 5 8.861242189860825 9.619982605275029 7.008364617472425 11.685037799086833
278 24 6 -8.861242189860825 9.879273556383303 7.3717092697533895 11.704545066033385
279 24 3 0.0 10.33990621252201 7.5707167176528065 11.663402925421483
280 24 3 0.0 10.568231045234874 7.211412117565972 11.642953147605366
281 24 1 0.0 10.770683270191892 7.924551092860342 11.607154110882863
282 24 2 0.0 11.041842820436635 8.062481938896601 11.946185705248228
283 24 1 0.0 11.38513331421129 8.312589815811693 11.773906982399348
284 24 1 0.0 11.799862133382684 8.559801662730644 11.825433208144151
285 24 1 0.0 11.023593696429304 7.2433063951734775 11.869710715276206
286 24 1 0.0 11.405491868929337 7.479703310554673 11.661313884541524
287 24 1 0.0 11.745670061876266 7.694652040122258 11.858450262793127
288 24 1 0.0 12.170983694627168 7.938860668553846 11.821874849531126
289 25 5 8.861242189860825 14.438610091298557 10.407616238597518 3.039895585931603
290 25 6 -8.861242189860825 14.823058345721124 10.6252482150188 3.106735167333208
291 25 3 0.0 0.27996664678411143 10.900060483649435 2.913074644743158
292 25 3 0.0 0.1905465463659768 10.85559984230097 2.4987347899117167
293 25 1 0.0 0.7218576474368249 11.238350774255595 2.8480854883094113
294 25 2 0.0 1.146377750993557 11.099755294493496 2.7582588963623382
295 25 1 0.0 1.412215606251345 11.465034033116874 2.680902905132724
296 25 1 0.0 1.8371898643751887 11.664074294609796 2.5562092930878415
297 25 1 0.0 0.6029126486495255 10.835043765129118 2.199865204771814
298 25 1 0.0 0.8646859834049512 11.239114194813137 2.0842764341802686
299 25 1 0.0 1.3021946998406144 11.275621114913472 1.9946088326894162
300 25 1 0.0 1.6853008504039115 11.552022815663193 1.8578642588200052
301 26 5 8.861242189860825 4.191161800087999 5.944706379661235 7.018536585754259
302 26 6 -8.861242189860825 3.853201097010495 5.655549111369029 6.976083028769213
303 26 3 0.0 3.362689843423619 5.581073748501074 6.890460517796415
304 26 3 0.0 3.2269256831262645 5.984368338541689 6.914372538045076
305 26 1 0.0 2.8658667614842637 5.352553047011923 6.768490513806032
306 26 2 0.0 2.5473197460965493 5.240628157743884 7.074260787222282
307 26 1 0.0 2.1676136133299226 5.106028575023752 6.855655031057349
308 26 1 0.0 1.703954813022035 4.96184545081771 6.856276512446387
309 26 1 0.0 2.762321285304634 6.033776983418948 7.118070655069049
310 26 1 0.0 2.3508702072044145 5.926474981883512 6.864391240024146
311 26 1 0.0 1.9570756005648926 5.775995941233742 7.016275330817965
312 26 1 0.0 1.4899024087026043 5.648926660645828 6.929846701327708
313 27 5 8.861242189860825 4.460532378728053 11.382974698826443 5.674490526165646
314 27 6 -8.861242189860825 4.1714539154250625 11.177811191618732 5.402510298031051
315 27 3 0.0 3.70775764289322 11.15931507264792 5.207259832274726
316 27 3 0.0 3.516855872022567 11.447494993172814 5.456577030988253
317 27 1 0.0 3.2626458181669507 11.04628722833222 4.886274260124787
318 27 2 0.0 2.9309026838521457 10.752960485934217 4.993048587490014
319 27 1 0.0 2.5989020410238877 10.77794070673271 4.678034566710074
320 27 1 0.0 2.1617296614880965 10.651542604150753 4.5087050864575895
321 27 1 0.0 3.030504472629609 11.338222887606136 5.56294106060567
322 27 1 0.0 2.667350689659644 11.405571283931897 5.233179816297277
323 27 1 0.0 2.2834205392111535 11.179324076603002 5.18631029867663
324 27 1 0.0 1.8499164974273998 11.121949084891215 4.9612555112520695
325 28 5 8.861242189860825 12.05807829333351 4.209772414644446 12.048967660636443
326 28 6 -8.861242189860825 12.176717079356587 4.002397177090098 12.426528273560754
327 28 3 0.0 12.167118713126973 3.992440660265537 12.929805357375836
328 28 3 0.0 12.009287813793124 4.381507095969277 13.0030647193298
329 28 1 0.0 12.197497513599593 3.832790330317497 0.2835205985684507
330 28 2 0.0 12.53988618783698 3.9322339502131385 0.567026866878601
331 28 1 0.0 12.433767759477673 3.7892029664595825 0.9893576476731141
332 28 1 0.0 12.531026088161155 3.7517351401136585 1.4635998032629447
333 28 1 0.0 12.195838060789546 4.604180906636527 0.23938651515002113
334 28 1 0.0 12.048083151383178 4.475384751880747 0.6940721121149009
335 28 1 0.0 12.27735302760424 4.486696761600013 1.0789022996303894
336 28 1 0.0 12.290018949068937 4.425962372884399 1.5667733991231585
337 29 5 8.861242189860825 9.266355318917782 14.050432079581837 0.718359855741562
338 29 6 -8.861242189860825 9.10380758310572 13.643487816548525 0.8055737737717699
339 29 3 0.0 8.987586253475241 13.294337313781297 1.1491805445305612
340 29 3 0.0 9.172704038553519 13.469874719796394 1.4906014622067472
341 29 1 0.0 8.774939234906979 12.848107671773157 1.4129833491357136
342 29 2 0.0 9.002924881346303 12.46408797219297 1.5026842817234976
343 29 1 0.0 8.742494075146155 12.189813984283562 1.7615893730130914
344 29 1 0.0 8.676741586101242 11.784008375965067 2.0199826025868095
345 29 1 0.0 9.371522499303616 13.130430147648958 1.8147001904478879
346 29 1 0.0 9.089813395965153 12.8646547654468 2.1231841967308807
347 29 1 0.0 9.160494228833208 12.453174848403558 2.285896853474848
348 29 1 0.0 9.022327317803358 12.084142484696041 2.580162584562254
349 30 5 8.861242189860825 1.7471624317298584 1.7930123646220697 0.5056767331427148
350 30 6 -8.861242189860825 2.1787311705963406 1.6781745899984248 0.4918067553411326
351 30 3 0.0 2.6421592775510523 1.7342686454410607 0.6803987238428162
352 30 3 0.0 2.5740540838647714 2.0729514947773553 0.93001007864874
353 30 1 0.0 3.1815959868119768 1.6627674483869186 0.8139171987884094
354 30 2 0.0 3.529789434288147 1.8878420606203636 0.6252439785960482
355 30 1 0.0 3.9172394365987038 1.7801604718898005 0.8451745192571257
356 30 1 0.0 4.393815686876012 1.8347402843034208 0.9204391483759656
357 30 1 0.0 2.970538462764781 2.3920939979857914 0.9572053627444381
358 30 1 0.0 3.3715024526556596 2.29120501381737 1.2296172686977567
359 30 1 0.0 3.7967080771357695 2.4156056075774406 1.1624489717702784
360 30 1 0.0 4.264160876890408 2.427152499515274 1.3148361449431498
361 31 5 8.861242189860825 3.4029635248317884 12.23711930939574 2.56504373892277
362 31 6 -8.861242189860825 3.2411624071577116 12.021781631794232 2.9215290121896214
363 31 3 0.0 2.8859875815204763 11.721776478866746 3.114730553087938
364 31 3 0.0 2.610823001434825 11.722904796311878 2.789256438824336
365 31 1 0.0 2.5969222944684853 11.371411972886243 3.4427816777633686
366 31 2 0.0 2.2537561737880587 11.492723504657649 3.716671012772151
367 31 1 0.0 2.0651241214892013 11.117028396639466 3.8993001621820675
368 31 1 0.0 1.726282002417884 10.8989488899131 4.170217104688669
369 31 1 0.0 2.122001020865941 11.704616582009043 2.932469553004729
370 31 1 0.0 1.9094853176749376 11.286317841562289 3.0906536054839826
371 31 1 0.0 1.5751023757464382 11.233371252198099 3.3842036314615966
372 31 1 0.0 1.259709937275689 10.93776568260034 3.618750552647427
373 32 5 8.861242189860825 13.706753401111877 14.31997176920854 2.9681393654599084
374 32 6 -8.861242189860825 13.487702599406898 14.690562772108388 2.8485119356052806
375 32 3 0.0 13.067860546825687 0.04907447843884666 2.8773080734130456
376 32 3 0.0 12.812588306257211 14.684115193465479 3.068353430265285
377 32 1 0.0 12.696096905922602 0.4677107842154503 2.8556977421238936
378 32 2 0.0 12.377767759602214 0.5184599073750609 2.533850071545721
379 32 1 0.0 12.103949438392132 0.868823440494122 2.6449859936748115
380 32 1 0.0 11.715077726015174 1.1480898548302467 2.5640063432387965
381 32 1 0.0 12.326587245438139 14.709769648399286 2.916906405310335
382 32 1 0.0 12.021043685957826 0.14935519281560822 3.071932926993686
383 32 1 0.0 11.672067670252353 0.3337331508928602 2.8597834043283914
384 32 1 0.0 11.290360570553206 0.6438349189789199 2.8617543758296136
385 33 5 8.861242189860825 2.6668200411705505 1.347050763986038 9.142172595485375
386 33 6 -8.861242189860825 2.41530539326043 1.5898277592749253 9.420437540414989
387 33 3 0.0 2.054541125642273 1.6002391390228752 9.771464363231491
388 33 3 0.0 1.917604855711356 1.1977849106388658 9.740980427742706
389 33 1 0.0 1.7124413178638587 1.753750592531796 10.187797790654486
390 33 2 0.0 1.2813166450205418 1.890978664511233 10.134931783791089
391 33 1 0.0 1.0876940291177684 1.9454420937273331 10.546788905917746
392 33 1 0.0 0.7037894207708949 2.042826678811459 10.827684147824597
393 33 1 0.0 1.4163815042914334 1.144263467780487 9.816491954602233
394 33 1 0.0 1.2148024401863253 1.1624230835117673 10.268371434211419
395 33 1 0.0 0.8063384037816034 1.3011467362907616 10.389614124931855
396 33 1 0.0 0.46686720119183533 1.3650101733894782 10.73968278287439
397 34 5 8.861242189860825 7.204668116556481 10.418580645167296 8.154077890520684
398 34 6 -8.861242189860825 6.80508445462985 10.575615714768421 8.030366326112956
399 34 3 0.0 6.429488649725787 10.900636114566728 8.112637919074231
400 34 3 0.0 6.548919307033016 11.048245154224505 8.494211120172158
401 34 1 0.0 5.97483992722184 11.223442303026726 8.057662729691335
402 34 2 0.0 5.565694107913274 11.131448189166047 8.235515543873293
403 34 1 0.0 5.285757202006188 11.487378403626561 8.16458400855421
404 34 1 0.0 4.859723732577409 11.712790749214758 8.22334964503325
405 34 1 0.0 6.159380483102895 11.155635452839531 8.804884923312096
406 34 1 0.0 5.883907248989486 11.563445106728182 8.750435512817713
407 34 1 0.0 5.452071501798535 11.62764072169997 8.851349938921931
408 34 1 0.0 5.064253843049326 11.928423982576135 8.882880793627686
409 35 5 8.861242189860825 14.848934601137353 1.3463026630505666 9.750609055389235
410 35 6 -8.861242189860825 0.041777265382295425 1.7130266334490953 9.520631584242153
411 35 3 0.0 0.4024092795860622 1.986652887792161 9.300285703362823
412 35 3 0.0 0.7448466773390096 1.7797844313045879 9.44722885094135
413 35 1 0.0 0.6807481748617498 2.357662535071827 8.98594374206533
414 35 2 0.0 0.8645918046866985 2.745021288167788 9.139727870400673
415 35 1 0.0 1.105167945532602 2.942908949351695 8.80350493012991
416 35 1 0.0 1.400419014631738 3.2915302956681023 8.639009927968036
417 35 1 0.0 1.1447917132578702 2.0821622181635613 9.538896870452243
418 35 1 0.0 1.4283466839633547 2.2613031136435064 9.17466607414896
419 35 1 0.0 1.657210217035582 2.6462124552329795 9.158754037309759
420 35 1 0.0 1.968499724520695 2.944891352998347 8.922624708723001
421 36 5 8.861242189860825 1.1142781356042148 2.507564166527302 9.590820842414459
422 36 6 -8.861242189860825 1.5581599354713531 2.492779779137023 9.639626956454991