Lipid soup setup

12800 atoms
4400 bonds
3200 angles
0 dihedrals
0 impropers

6 atom types
2 bond types
3 angle types
0 dihedral types
0 improper types

0 18.035567533267987 xlo xhi
0 18.035567533267987 ylo yhi
0 13.116836009813127 zlo zhi

Masses

1 72.000000
2 72.000000
3 72.000000
4 72.000000
5 72.000000
6 72.000000

Atoms

1 1 5 1.0 1.7495562779940617 0.7208597232716184 6.318850777658742
2 1 6 -1.0 1.3662974143021396 0.8517576412111425 6.130144536076203
3 1 3 0 1.1364301631268654 1.098568587559342 5.75634714770277
4 1 3 0 1.4746951247427385 1.2920796646696138 5.583776880656908
5 1 1 0 0.7582164460755352 1.2903659427016103 5.390150852766742
6 1 2 0 0.55385890035127 1.6967758505487167 5.4138957946363835
7 1 1 0 0.3009474249060611 1.761823484490007 5.037217068844456
8 1 1 0 0.014974850015174845 2.037913429161158 4.758357477814061
9 1 1 0 1.3745021144838117 1.7563187471442605 5.3987503459618225
10 1 1 0 1.1366973649113161 1.823003535804212 4.969610514597956
11 1 1 0 0.8694211261828146 2.160277730351937 4.844724803514403
12 1 1 0 0.5972894732421397 2.3797901886146997 4.498854964709821
13 2 5 1.0 8.331238208037206 6.561088300681298 10.71895346752752
14 2 6 -1.0 8.64623062808138 6.24424102636769 10.723340631336152
15 2 3 0 9.059873423894985 6.055824135482821 10.939853440785742
16 2 3 0 9.153335142254198 6.378807927121929 11.201762959187448
17 2 1 0 9.47883804745969 5.719722825860677 11.099340498259982
18 2 2 0 9.905648647807215 5.740903001669807 10.941609862241453
19 2 1 0 10.169221285248984 5.449057540851018 11.17706253975632
20 2 1 0 10.601676111409548 5.254368330826163 11.281214243910492
21 2 1 0 9.653325934172388 6.453589882866323 11.266633989971485
22 2 1 0 9.928134096772805 6.1600061091135805 11.555507658515625
23 2 1 0 10.361814815139079 6.053618589042874 11.518229769358205
24 2 1 0 10.759160913817963 5.825260640526171 11.69665629898148
25 3 5 1.0 5.36793375671111 0.595122740079355 4.667277596403416
26 3 6 -1.0 5.272854001026744 0.32473686809777325 5.010035510131596
27 3 3 0 4.922305814972216 0.11363060323907526 5.303342854305345
28 3 3 0 4.5829630272704485 0.3386483473111166 5.177391651146469
29 3 1 0 4.650378241310043 17.81878082924441 5.6650213930296225
30 3 2 0 4.548419241023845 17.929723774500562 6.0948944755943035
31 3 1 0 4.286202790467218 17.601573818881125 6.278313153056298
32 3 1 0 4.018808716488978 17.423521105617592 6.642409683043465
33 3 1 0 4.248156444434295 0.432812590267926 5.54998933093107
34 3 1 0 3.93685788847237 0.08634830596980256 5.717961541676412
35 3 1 0 3.7632383262940845 0.03819937952239168 6.128235644491223
36 3 1 0 3.4618041636937877 17.83629188636101 6.435823613533124
37 4 5 1.0 4.470403063777697 7.665142685912988 12.691573576014891
38 4 6 -1.0 4.777845132734839 7.963035907496273 12.563625657307252
39 4 3 0 5.139119084573033 8.090925164291125 12.237122129493777
40 4 3 0 5.177916107810231 7.720806403730803 12.02937922983444
41 4 1 0 5.517046375776358 8.37431189546499 11.935800887646252
42 4 2 0 5.966932598303565 8.366965713576706 12.006816817880226
43 4 1 0 6.177349078606952 8.59852779563468 11.671874765388795
44 4 1 0 6.579742786846923 8.753136517894434 11.448393022917573
45 4 1 0 5.65453281853516 7.615869406853183 11.88235500976518
46 4 1 0 5.8651602411074935 7.838581406426485 11.493517757270688
47 4 1 0 6.297373097720321 7.933306486900766 11.422763841214849
48 4 1 0 6.650359111670319 8.10822797741701 11.128365051525149
49 5 5 1.0 1.6580355273202951 15.595260257285705 7.544864828609458
50 5 6 -1.0 1.3124856035020174 15.796433699918161 7.744254304911799
51 5 3 0 0.863427015189524 16.019467129637366 7.69863021647764
52 5 3 0 0.8491539638072718 16.058698066966272 7.27447525440578
53 5 1 0 0.35818379870418127 16.23893897903795 7.801065401577583
54 5 2 0 0.2679853440706247 16.6843263354015 7.83251668976007
55 5 1 0 17.850996666156764 16.745194723469467 7.872142270035941
56 5 1 0 17.460501670291833 17.032385403198028 7.900493889555472
57 5 1 0 0.6153953112487764 16.48238414849593 7.114355361153885
58 5 1 0 0.12251501210301674 16.529258124055605 7.1199047710401295
59 5 1 0 17.910522035837918 16.89925473890734 7.170926433571739
60 5 1 0 17.469102480198785 17.115805310312094 7.181968497831659
61 6 5 1.0 6.515882881947337 13.44410060956657 3.8098226920179807
62 6 6 -1.0 6.485684605754725 13.56788577659793 3.381573974950963
63 6 3 0 6.432847824311364 13.940491394709259 3.0471305390256176
64 6 3 0 6.33368584170509 14.25810974728964 3.3134681097875442
65 6 1 0 6.427066312531833 14.245689543944593 2.5772877659034847
66 6 2 0 6.054187502308108 14.34819832855361 2.3365634756474885
67 6 1 0 6.165579937319247 14.63953877473213 2.0007141918902485
68 6 1 0 6.044717530351582 14.928251164152051 1.6294917822416601
69 6 1 0 6.0011097339354365 14.59271988995284 3.120541780556361
70 6 1 0 6.134263921901354 14.934075411909461 2.7875172699302992
71 6 1 0 5.889939605090472 15.120116012068719 2.461202338864013
72 6 1 0 5.849453685369882 15.446174145701802 2.09525933093029
73 7 5 1.0 7.062506419888693 7.030687770697106 10.731076101123524
74 7 6 -1.0 6.633397306281953 6.91608672894888 10.682458851289812
75 7 3 0 6.211021698690717 6.946959829229538 10.410200184309376
76 7 3 0 6.327063747540829 7.2539013800389185 10.13822344711473
77 7 1 0 5.702171429275482 6.857301888142247 10.193487414620424
78 7 2 0 5.329960519279161 7.101415523837171 10.290246979019235
79 7 1 0 4.98527139954701 6.966342983894035 10.020011727342022
80 7 1 0 4.530115922218444 7.009122130756158 9.856389972372101
81 7 1 0 5.946537840180486 7.565492484687034 10.004423593323052
82 7 1 0 5.59782681292722 7.430853106207705 9.679720941569883
83 7 1 0 5.169448575166281 7.560160769292587 9.656087816303115
84 7 1 0 4.736076799512508 7.5510883057458456 9.423764989763443
85 8 5 1.0 11.015016392623028 15.079828238880525 6.97925343318263
86 8 6 -1.0 11.431476370858546 15.225101009216097 6.907919178727747
87 8 3 0 11.733732629784242 15.595718092994995 6.750555856741852
88 8 3 0 11.441910645012017 15.852801481202768 6.576204834373595
89 8 1 0 12.176505974552683 15.925071155374063 6.653551253272097
90 8 2 0 12.408081987757217 15.94328337163253 6.261714926162958
91 8 1 0 12.718409788764554 16.279843180751882 6.284218756169423
92 8 1 0 13.064352076055961 16.554687332943537 6.082840334988002
93 8 1 0 11.606484283699348 16.100818345187893 6.162448219718175
94 8 1 0 11.90981479042431 16.490993049110816 6.192668393931851
95 8 1 0 12.219640795466757 16.630648600925152 5.900622020257416
96 8 1 0 12.557158986467059 16.962400703982937 5.766871079624786
97 9 5 1.0 14.892215839606667 2.7636909769971254 10.12249823346158
98 9 6 -1.0 14.608664548916076 2.8040506540981776 10.465428881178479
99 9 3 0 14.149230983727838 2.931218043436968 10.627380535143947
100 9 3 0 14.000702083149777 3.1166321534628567 10.27352888291377
101 9 1 0 13.682833492856531 2.9903213536726216 10.932194817713457
102 9 2 0 13.566665682933092 3.3658283828050926 11.162399841474514
103 9 1 0 13.145106212504146 3.314010138485048 11.334692482073924
104 9 1 0 12.75818139246188 3.484975021328052 11.573080474887362
105 9 1 0 13.691275703875824 3.5118422981385455 10.362160936358062
106 9 1 0 13.22226730614111 3.451268038767899 10.508860754956727
107 9 1 0 12.97010164455404 3.71879604853838 10.765040680076002
108 9 1 0 12.536049183348362 3.821239841123433 10.97233523268551
109 10 5 1.0 6.680998267752119 7.5063559328437215 2.287786142887896
110 10 6 -1.0 6.43813302715134 7.575674736958773 1.9192172274385344
111 10 3 0 6.201455003363788 7.379920643807259 1.520290000960551
112 10 3 0 6.345826509991 6.97964706586683 1.5445417878349421
113 10 1 0 5.87009299269376 7.302455639978015 1.0751720854632314
114 10 2 0 6.008364482477515 7.312497022875858 0.6412654046001556
115 10 1 0 5.660944050478659 7.1905372541140515 0.3683054628673851
116 10 1 0 5.479546879284712 7.086530145839428 13.046910676912955
117 10 1 0 6.419179223964167 6.759086523706988 1.090929827964122
118 10 1 0 6.043256531969444 6.590567488214879 0.8162619937695833
119 10 1 0 6.010925835916775 6.560862674525584 0.3703256069766345
120 10 1 0 5.758965515640549 6.420584570231675 13.088783214110222
121 11 5 1.0 2.1818462725636127 1.5521329115700775 7.336622127183695
122 11 6 -1.0 2.5397200731679614 1.3640093492596201 7.526799768551327
123 11 3 0 2.8989638470098065 1.3881709164079128 7.878707730359208
124 11 3 0 2.8400327183236165 1.7895470229511243 8.009377395766409
125 11 1 0 3.3110461638965893 1.2631473931667483 8.237161144871909
126 11 2 0 3.751289801795247 1.3617634466353528 8.174270324848916
127 11 1 0 3.986698283783756 1.2534170840466883 8.552326119513054
128 11 1 0 4.398504276972981 1.242201819200007 8.809344960176023
129 11 1 0 3.2703765668877574 2.028741644174315 8.141216269865886
130 11 1 0 3.500561484601676 1.9390836342135631 8.570326162233542
131 11 1 0 3.9375932274352867 1.9630466798834174 8.666325845189046
132 11 1 0 4.301424684457336 1.9343402527647895 8.995977044463048
133 12 5 1.0 9.56216791334627 14.221247477867907 10.945771612740355
134 12 6 -1.0 9.37456178823021 13.872586388624272 11.152824875931044
135 12 3 0 9.3949414554909 13.535982299215334 11.52667168962683
136 12 3 0 9.79183375426763 13.60947006331907 11.66351565181882
137 12 1 0 9.266829979468623 13.144560926414437 11.906551047129026
138 12 2 0 9.373684182627791 12.702999733389339 11.873373735052803
139 12 1 0 9.25906542236588 12.489373399611507 12.262357797541394
140 12 1 0 9.247355146984992 12.09392201923504 12.543871061628064
141 12 1 0 10.03396805960498 13.19203604241896 11.827561986483397
142 12 1 0 9.936617126060794 12.987055468347688 12.267635519898388
143 12 1 0 9.964654541914292 12.557170520617296 12.390922769671484
144 12 1 0 9.93284067827851 12.213746546484375 12.741515344223208
145 13 5 1.0 11.549704373042925 2.8438127380810228 7.001316390536863
146 13 6 -1.0 11.68624875721334 3.1804891580211527 6.741246618092328
147 13 3 0 11.624084771007471 3.6571100093554536 6.591422431635894
148 13 3 0 11.247636159954261 3.737878833019507 6.774214823845416
149 13 1 0 11.70011495083763 4.166855702077446 6.371626371305876
150 13 2 0 11.524578239422766 4.310132596909987 5.976463827144703
151 13 1 0 11.615369258870194 4.756181660445692 5.92280289849005
152 13 1 0 11.573052137278212 5.173212245634652 5.677724554108085
153 13 1 0 10.947925421710801 4.046801134548801 6.501209570155448
154 13 1 0 11.024474203416275 4.535460844722935 6.4786058869864
155 13 1 0 10.933027491218336 4.820117001207646 6.144846569014518
156 13 1 0 10.92066412278452 5.280161940452255 5.971430588620883
157 14 5 1.0 12.032401369088557 0.7474931733434508 1.710288731168862
158 14 6 -1.0 12.437976636922702 0.5977594315447242 1.597504974272097
159 14 3 0 12.933662655212942 0.5987650026177128 1.6856721113093915
160 14 3 0 12.95309996758102 0.9208279673373501 1.9641462679802564
161 14 1 0 13.479097847220931 0.47100643344072407 1.6961490837386821
162 14 2 0 13.801430445004609 0.6800200853938148 1.4513842340188137
163 14 1 0 14.213236560307836 0.5223370536300818 1.5764204545716
164 14 1 0 14.698082812142953 0.5298392554808911 1.5511920638835397
165 14 1 0 13.376597292427435 1.2017669237413298 1.9252270932010995
166 14 1 0 13.813110784356699 1.0454529176488156 2.0989534806150414
167 14 1 0 14.2254600607389 1.1381395392650253 1.950077104483821
168 14 1 0 14.713089806960282 1.0974761954074173 1.9993825233126037
169 15 5 1.0 4.402057391886541 6.8713335226914465 6.587299675590538
170 15 6 -1.0 4.639814914288992 6.967244462893673 6.2213705578339615
171 15 3 0 4.837942814650936 7.318935733866938 5.920475777263832
172 15 3 0 4.646377296999792 7.663515692237955 6.082394037585893
173 15 1 0 5.143047824259407 7.589073560905296 5.535939621427952
174 15 2 0 4.993400549690823 7.7149314481177 5.124527021480216
175 15 1 0 5.314418521874427 7.967823176042559 4.916980624162006
176 15 1 0 5.467728317979643 8.241266702690494 4.546179617150968
177 15 1 0 4.5322005185557455 8.018390131456526 5.734803503772955
178 15 1 0 4.875722720382357 8.318662004637826 5.542480198244846
179 15 1 0 4.890043441412874 8.507112181619325 5.136194143014883
180 15 1 0 5.110156279427084 8.809075790712082 4.816451092137309
181 16 5 1.0 0.9337485647062326 8.01012766217422 11.871298780801013
182 16 6 -1.0 1.1930346335421969 7.783639201066323 12.156088841414267
183 16 3 0 1.3471274321018551 7.713111759498305 12.630177834508277
184 16 3 0 1.1727368522024926 8.05747197290267 12.810882531060718
185 16 1 0 1.5685033123287062 7.499304020510965 13.098377084863438
186 16 2 0 1.9681361633567453 7.622752997459864 0.16195386956500943
187 16 1 0 2.022706573802359 7.4148426389343225 0.566771883836905
188 16 1 0 2.2712410434418175 7.3394044293517355 0.9770258741695874
189 16 1 0 1.4538757737835668 8.258419406171727 0.06870959572615118
190 16 1 0 1.4779621766321296 8.053387477509961 0.5187548248397613
191 16 1 0 1.8153454406503606 8.05909753662995 0.8135884038547151
192 16 1 0 1.991881512734157 7.944603094163111 1.2581031270719834
193 17 5 1.0 8.81228856903251 17.861403915811586 3.4995186847842654
194 17 6 -1.0 8.403354461879362 0.0014546293266270993 3.539050880969724
195 17 3 0 7.906974103179145 17.960534353158124 3.5741968403281033
196 17 3 0 7.894885198527306 17.54486870654707 3.48078299284615
197 17 1 0 7.357548891585967 18.022615622630777 3.66480269265941
198 17 2 0 7.045139980389087 0.05596664908038562 3.3405408443232805
199 17 1 0 6.626941741376429 0.04518990430472769 3.527827699751565
200 17 1 0 6.142931629879614 0.05604659262157696 3.490612287144508
201 17 1 0 7.4813348827935435 17.404558325134754 3.2179512657518856
202 17 1 0 7.037921008415334 17.353596935094437 3.4323015108064054
203 17 1 0 6.630607117413122 17.41381663478832 3.2555081486715856
204 17 1 0 6.14136197075619 17.39344022219905 3.301238767977706
205 18 5 1.0 5.546085183265181 10.72240158256243 11.652538999274164
206 18 6 -1.0 5.6913834933603535 11.106143638204957 11.829349923558464
207 18 3 0 5.993163840675387 11.337390283743423 12.159399457502378
208 18 3 0 6.123414050920443 10.998348767449404 12.382415042719684
209 18 1 0 6.297150999324161 11.717885698042956 12.436431251172163
210 18 2 0 6.17589840126647 11.913794927993287 12.829384458360577
211 18 1 0 6.521983839616034 12.171695431833939 12.98363902405829
212 18 1 0 6.723477142811372 12.456853065793448 0.2042259168613434
213 18 1 0 6.194063747529368 11.09251286081274 12.878331494789029
214 18 1 0 6.591117968445803 11.336164061489965 13.046084267886398
215 18 1 0 6.629094831569576 11.598834282090277 0.29028707040039237
216 18 1 0 6.909129632030641 11.872396291293851 0.5879641419237576
217 19 5 1.0 13.23014036878596 6.104416451727603 4.078811109999968
218 19 6 -1.0 12.820965096796964 6.154575748586922 3.9064994479952033
219 19 3 0 12.534311726053112 6.320807447356677 3.5274533408785658
220 19 3 0 12.82768747668867 6.542152969533861 3.3116130132269004
221 19 1 0 12.110434337874421 6.411667574746684 3.1724829693379095
222 19 2 0 11.84666211555034 6.783031555031536 3.1696810356595115
223 19 1 0 11.565580059989758 6.766931720611675 2.807996166013359
224 19 1 0 11.224446847651787 6.964173332043143 2.5242841274817223
225 19 1 0 12.645639417907484 6.962516058337758 3.0881297668566896
226 19 1 0 12.376198796434103 6.944406798703135 2.673120416315774
227 19 1 0 12.052719284931234 7.221797476133256 2.5345479492011314
228 19 1 0 11.730262461591153 7.358020890137176 2.1891031926653977
229 20 5 1.0 10.084458243285203 10.74751914262956 1.087514201728174
230 20 6 -1.0 9.875692793913718 10.355339826295923 1.1348854812162337
231 20 3 0 9.584594326011056 10.057604108356408 1.417894682838254
232 20 3 0 9.588149589829667 10.282394306326953 1.7799816134021567
233 20 1 0 9.24309210873055 9.65122457903794 1.597236483246375
234 20 2 0 9.373721524674878 9.28674150276809 1.8372008238431436
235 20 1 0 9.003552495954409 9.049264501266222 1.9662815562988054
236 20 1 0 8.794758870318793 8.683865961650401 2.208475222170647
237 20 1 0 9.580884375779808 9.995225588960182 2.2010192933948756
238 20 1 0 9.16836797653673 9.773001677663059 2.3610371312261704
239 20 1 0 9.124789744993079 9.389918747471322 2.589368726194446
240 20 1 0 8.837685797433524 9.065183714678797 2.821717134909572
241 21 5 1.0 8.16891286518775 2.080796267033007 0.655725394570025
242 21 6 -1.0 7.893107238031955 1.9380660292774434 0.33449183095785884
243 21 3 0 7.556074023945402 2.052758168182072 13.09533147866747
244 21 3 0 7.492849416946123 2.4633555404039753 0.07369350078725745
245 21 1 0 7.215002173738252 2.035944736512821 12.651125592684402
246 21 2 0 6.7639246141207705 1.9753423728339625 12.669866742094277
247 21 1 0 6.586347643291424 2.025878226389168 12.250349378336848
248 21 1 0 6.207020655852153 2.0492639863643975 11.948136232563025
249 21 1 0 7.014477366067148 2.621554991211286 13.113558748326472
250 21 1 0 6.837841810457533 2.7152570598106447 12.660592129627531
251 21 1 0 6.418221218037623 2.6772553758463 12.50807543754908
252 21 1 0 6.09236246691485 2.736017047845323 12.144440398698201
253 22 5 1.0 5.78752694419768 0.24706323729768054 2.2065063692698006
254 22 6 -1.0 6.17953781484007 0.3112775002666065 2.0019686640389893
255 22 3 0 6.582085238358636 0.6055289435690985 1.9323213820537348
256 22 3 0 6.4459430817849075 0.9564014952084964 2.1323313418036385
257 22 1 0 7.08933213276578 0.8009892003585114 1.7965736610402627
258 22 2 0 7.181328635825776 1.0594263164440691 1.4329230836871618
259 22 1 0 7.618409758449922 1.1962917768312908 1.4505358505360304
260 22 1 0 7.991654748407657 1.4538058290124891 1.2769174959517553
261 22 1 0 6.605107096896157 1.3906779249303889 1.9181767657969815
262 22 1 0 7.068057865166049 1.5573111578748078 1.9735744792667322
263 22 1 0 7.314830985065347 1.8033850048520481 1.6919051695105856
264 22 1 0 7.730210762054951 2.048372824623124 1.5954276576678033
265 23 5 1.0 14.79469086419637 17.238730607285 8.568298416676086
266 23 6 -1.0 14.353224762802743 17.175613035451036 8.540811682100504
267 23 3 0 13.891017896514422 17.374120245887738 8.561758856505165
268 23 3 0 13.988888055678569 17.759717389097208 8.714685287783494
269 23 1 0 13.339782173098984 17.46176785820514 8.512885132317791
270 23 2 0 13.037145891650994 17.418701324228657 8.85060009609304
271 23 1 0 12.626125933381763 17.5600707686258 8.705136885442839
272 23 1 0 12.157571236226964 17.66031568913331 8.783725016445551
273 23 1 0 13.638094258671943 17.951180919014753 9.03103448129615
274 23 1 0 13.211446584949307 0.10588939731522728 8.866943784577748
275 23 1 0 12.811726308269927 0.11785316564082393 9.069100851207455
276 23 1 0 12.341729849301865 0.2626543090145468 9.07090603669327
277 24 5 1.0 9.312445008252672 16.90927206583388 5.805111183681132
278 24 6 -1.0 9.134565052613787 16.614159985694315 6.0895391159753105
279 24 3 0 9.20845821629724 16.26173822512728 6.44141663301022
280 24 3 0 9.629939966889026 16.212505210622204 6.40167418101651
281 24 1 0 9.140056903572344 15.89784765401447 6.861935931381803
282 24 2 0 9.09567084166308 15.447129113144266 6.813176148987368
283 24 1 0 9.09264881234625 15.24922350959685 7.226584555990423
284 24 1 0 9.084832868880587 14.85536480984963 7.510455791428346
285 24 1 0 9.789666255450602 15.734358830502526 6.476873485958195
286 24 1 0 9.824710236961854 15.536604433695326 6.929448421989928
287 24 1 0 9.77804391115544 15.108923085868279 7.054739402056679
288 24 1 0 9.795188981057633 14.766041648515895 7.406883786871636
289 25 5 1.0 6.720579356194412 17.63495534749608 4.557768944438304
290 25 6 -1.0 6.781183997845998 17.248850077065125 4.3412476644511955
291 25 3 0 6.688888551630977 16.754618604667463 4.314868008377249
292 25 3 0 6.50992937759414 16.697788827234014 4.697482969813107
293 25 1 0 6.634898769415569 16.225448431475044 4.138812338630249
294 25 2 0 6.9227371032024525 15.88639956562766 4.237249131170043
295 25 1 0 6.752509696267209 15.491675436501758 4.078196424901447
296 25 1 0 6.771149900842937 15.009095350369808 4.02782137264205
297 25 1 0 6.618220461644197 16.247799046283372 4.9109627620609375
298 25 1 0 6.401190256468723 15.827695932887153 4.76409472953798
299 25 1 0 6.563328079626686 15.409989300955871 4.7685000526519055
300 25 1 0 6.496996155532455 14.928659819057494 4.692412557221393
301 26 5 1.0 4.367431071360867 6.847399914458652 12.681458223408505
302 26 6 -1.0 4.727980414407465 6.808840533893104 12.42040456507252
303 26 3 0 5.221321444947883 6.888076074134678 12.358635311370422
304 26 3 0 5.293231712236554 7.138712148354505 12.69577132257034
305 26 1 0 5.750875423182361 6.871060663821955 12.17638650457555
306 26 2 0 5.94780829491203 7.187856798412409 11.914943403507682
307 26 1 0 6.393350263655953 7.090853238867364 11.86841454062836
308 26 1 0 6.8384741981359705 7.198992983417434 11.707358273288165
309 26 1 0 5.64419679164983 7.49908744829663 12.613646175587371
310 26 1 0 6.128742862222691 7.397594708187432 12.605085567057921
311 26 1 0 6.455246318182446 7.599945255373857 12.374354857725141
312 26 1 0 6.933159563370183 7.646282489558045 12.267963635992436
313 27 5 1.0 17.234009046113105 16.67759381828927 1.346129346264351
314 27 6 -1.0 17.483923822723295 16.706787936422945 1.7153474051804998
315 27 3 0 17.760930923164548 16.471310544329153 2.0636239448336986
316 27 3 0 17.664632332865278 16.067672117387076 1.9663983304527997
317 27 1 0 0.08425527003155509 16.354392618033522 2.4776992815951684
318 27 2 0 18.001973454133232 16.265290399020287 2.908590413347872
319 27 1 0 0.3384364327385043 16.1393474008721 3.144840135062477
320 27 1 0 0.5514732421994033 15.978860556233784 3.550583814200723
321 27 1 0 17.639750696208953 15.758484525683333 2.370842789973092
322 27 1 0 0.010143543584312908 15.590482527279283 2.5991637322911876
323 27 1 0 0.06680838880394901 15.482032272136788 3.0302258489348084
324 27 1 0 0.3522900557589743 15.302631256784863 3.388252097669131
325 28 5 1.0 6.526668157200178 8.35761651314462 11.56321973733642
326 28 6 -1.0 6.45291139129144 8.797808191900174 11.542655385448121
327 28 3 0 6.388712167444235 9.232321126344894 11.788736781357327
328 28 3 0 6.349895006140398 9.081356501857064 12.185414394074765
329 28 1 0 6.348538583613571 9.775118943214471 11.921733701600047
330 28 2 0 5.9578469378119605 10.001126514152396 11.98317845511651
331 28 1 0 6.0492755225111665 10.424475765466894 12.133173444595549
332 28 1 0 5.906398822889283 10.858801951308617 12.296622689455294
333 28 1 0 6.023848582098753 9.344871329043404 12.475319635085564
334 28 1 0 6.141196111425205 9.784500274097203 12.67055001912639
335 28 1 0 5.873594389819961 10.130709749791356 12.767065450343406
336 28 1 0 5.8138752726073015 10.580092936240227 12.957737105383927
337 29 5 1.0 10.090028859707594 12.488759928506244 10.236418833628735
338 29 6 -1.0 9.818832080600227 12.835877764138026 10.311206414948307
339 29 3 0 9.347995941855823 13.011634948460324 10.341236842290012
340 29 3 0 9.139378725231406 12.676620664315378 10.180319147065482
341 29 1 0 8.89550584246632 13.323715554345272 10.44981848445475
342 29 2 0 8.680510061139366 13.587050328701824 10.146624730262275
343 29 1 0 8.299432099867126 13.757004688052655 10.336301757673883
344 29 1 0 7.887268412847417 14.012268882412426 10.309284562629628
345 29 1 0 8.729445119862365 12.802027266732734 9.904603701719754
346 29 1 0 8.304855881749631 12.94604448277813 10.114703618859792
347 29 1 0 7.993108744269124 13.226640147544849 9.957011811474793
348 29 1 0 7.555349135180114 13.445196948965991 10.006678203152548
349 30 5 1.0 7.719819036439262 7.0485671992757295 1.834418589072102
350 30 6 -1.0 8.107706797115531 6.9320015545777185 2.0230642959546574
351 30 3 0 8.402742372626006 6.93589537167084 2.431007835340462
352 30 3 0 8.183443301011751 7.210999197307202 2.6715821909958604
353 30 1 0 8.803687910874807 6.826480539736 2.8067772294391267
354 30 2 0 9.174590584811295 7.081864824882143 2.8753696147474623
355 30 1 0 9.405293602160913 6.920530209745662 3.23707326596211
356 30 1 0 9.769274608760245 6.94817742172383 3.5572639921748688
357 30 1 0 8.47652607660968 7.5086480550272565 2.9636421637560444
358 30 1 0 8.691454809690253 7.341893571915626 3.3773540645752274
359 30 1 0 9.07674025823202 7.470499500056829 3.5665696805228153
360 30 1 0 9.398112691228164 7.439055934739643 3.9375122134976346
361 31 5 1.0 17.654740469643347 14.367837656199612 8.439783349158212
362 31 6 -1.0 17.31775083899129 14.462219921750178 8.162003501231716
363 31 3 0 16.821879094207603 14.458616037115148 8.074955763204326
364 31 3 0 16.696204711437773 14.21908862574225 8.404323015684087
365 31 1 0 16.310790143032033 14.556535381950352 7.867274628953937
366 31 2 0 16.08209186782961 14.274997366676207 7.591723750112907
367 31 1 0 15.659069585832729 14.438308737969766 7.5249119510215055
368 31 1 0 15.211506217031175 14.399632527457225 7.340630035752329
369 31 1 0 16.29979166968716 13.91628218288929 8.299650468950551
370 31 1 0 15.837005395047987 14.089611827122523 8.268915256954472
371 31 1 0 15.495973070661842 13.940479554034633 8.019428925110544
372 31 1 0 15.022529399591287 13.9674172782489 7.889072680162765
373 32 5 1.0 0.14058244378769325 14.4425676800342 5.435447267592068
374 32 6 -1.0 0.25600994096492724 14.869760078398635 5.373683080504602
375 32 3 0 0.4873288359973304 15.21274542126829 5.086748057663991
376 32 3 0 0.6863476054428195 14.951713643572951 4.81489486432012
377 32 1 0 0.6596052934376294 15.692386045990744 4.853945005798469
378 32 2 0 1.0604463108554494 15.8931357297865 4.934697003708628
379 32 1 0 1.1093993566982023 16.252640308731788 4.654621427162671
380 32 1 0 1.3705935438413555 16.620434285907788 4.4749722423507965
381 32 1 0 1.1430733207612855 15.120371330871176 4.664071825546304
382 32 1 0 1.1928670440642088 15.48188083349742 4.329422128920974
383 32 1 0 1.5193415292765446 15.78618884532195 4.289447694912998
384 32 1 0 1.7228248695812156 16.159703471401546 4.042569879825116
385 33 5 1.0 12.466122016837234 6.671324472250829 10.128876064337032
386 33 6 -1.0 12.764787723019117 6.396885960650953 9.941488854439303
387 33 3 0 13.23670156272327 6.221758847057834 9.931149321800238
388 33 3 0 13.419560606338655 6.501851854115008 10.195271823407696
389 33 1 0 13.694640250005651 5.912962984911093 9.836974793177214
390 33 2 0 14.01739137284592 6.010446805487506 9.530668640143515
391 33 1 0 14.363815896744306 5.713679095090188 9.575403937893412
392 33 1 0 14.806681309478886 5.554454277705949 9.455878516412174
393 33 1 0 13.899087424228716 6.620729098326097 10.069917863454576
394 33 1 0 14.27784288191684 6.31409707791784 10.157553827263264
395 33 1 0 14.660634222339086 6.266353727015594 9.929566386662074
396 33 1 0 15.103269744046669 6.057055001278635 9.883358815994129
397 34 5 1.0 17.847602477226488 8.189330602774747 6.877563585720252
398 34 6 -1.0 0.2560660421403168 8.181477243852058 6.828508761975636
399 34 3 0 0.6631335688831492 7.938005057333635 6.659699973642857
400 34 3 0 0.4846215717620983 7.562350679959154 6.566600704403564
401 34 1 0 1.1805151520866217 7.808176265117822 6.488258001816007
402 34 2 0 1.4901399502114168 7.584994453327763 6.736888662088262
403 34 1 0 1.8574799116363023 7.495869057878944 6.477658478305744
404 34 1 0 2.293337791907537 7.292250052914326 6.411811294079184
405 34 1 0 0.7889806717157566 7.162572361475853 6.652240752797886
406 34 1 0 1.1604591970248048 7.044341834403669 6.346979876622579
407 34 1 0 1.550564388690861 6.845123169249982 6.441408547158009
408 34 1 0 1.9768307752000702 6.65362792671991 6.28813153948816
409 35 5 1.0 8.054661614561805 16.052759329916757 1.4636282034011048
410 35 6 -1.0 7.706911375540693 16.290657720847133 1.3149480299245089
411 35 3 0 7.2681661685997225 16.515611107146704 1.4168190333241515
412 35 3 0 7.201965676175638 16.36232751345752 1.8089565767935107
413 35 1 0 6.8098647331145905 16.837172579453654 1.3946925471530252
414 35 2 0 6.393415164721466 16.691555665177333 1.2812892261392421
415 35 1 0 6.091805312166159 17.031155182082923 1.3428191905185445
416 35 1 0 5.637418833387099 17.202314319472624 1.3452931021303172
417 35 1 0 6.711285906588311 16.275838168843897 1.916401169626066
418 35 1 0 6.3965488123383105 16.64280403316941 2.0233383976795616
419 35 1 0 5.95530902051498 16.66657041121492 1.9489776801210483
420 35 1 0 5.529647549967595 16.90811215651077 1.9973222664815102
421 36 5 1.0 17.807531903692492 1.7498966848056559 4.06916712466965
422 36 6 -1.0 17.774000909640396 1.5266037439660505 4.454715567982046
423 36 3 0 17.51185871741916 1.206861917976467 4.741988469114854
424 36 3 0 17.151373600136523 1.1907023031765533 4.515185547271044
425 36 1 0 17.35636121529674 0.8411910738658965 5.137003567853344
426 36 2 0 17.106046821774225 0.943010138748961 5.5037056599893495
427 36 1 0 17.003440064862456 0.5574772459760866 5.729356969721182
428 36 1 0 16.775717794392925 0.3207401461286269 6.086941583114849
429 36 1 0 16.730861046487775 1.1441536022402417 4.799428039182208
430 36 1 0 16.60055710984015 0.7146035397429134 5.008393545243714
431 36 1 0 16.37450892425028 0.6430503893564943 5.388616210784345
432 36 1 0 16.162492571201884 0.33018052008690635 5.7033046475003815
433 37 5 1.0 6.493620950431817 12.281515047027229 4.730125936555078
434 37 6 -1.0 6.341485365694801 12.303714335819032 4.3106099981625094
435 37 3 0 6.073328535984508 12.0909080250927 3.9414427288255043
436 37 3 0 6.011447626179195 11.706394261398763 4.114561580546617
437 37 1 0 5.780759611660532 11.998741991608533 3.4725713025027503
438 37 2 0 5.9417017429008885 11.791182925354988 3.100399693748267
439 37 1 0 5.600509244353931 11.731632574271895 2.800193587583475
440 37 1 0 5.427030145393383 11.558339528709098 2.381095549850907
441 37 1 0 6.009023698987876 11.325678296133168 3.775679798929818
442 37 1 0 5.6211114638786315 11.238313031103257 3.480636813689241
443 37 1 0 5.614221648813974 11.06310744422371 3.068274783788226
444 37 1 0 5.358492273552218 10.903089616140875 2.6798625252492143
445 38 5 1.0 12.859841972974197 7.604439927674036 11.539015997380329
446 38 6 -1.0 12.65163545396086 7.989091878356997 11.447776809485672
447 38 3 0 12.58709021275571 8.476387803616243 11.556660587058246
448 38 3 0 12.802962821133045 8.493780874601576 11.92373921122984