Lipid soup setup

4608 atoms
1408 bonds
1024 angles
0 dihedrals
0 impropers

6 atom types
2 bond types
3 angle types
0 dihedral types
0 improper types

0 10.373608390765556 xlo xhi
0 10.373608390765556 ylo yhi
0 14.273534117647056 zlo zhi

Masses

1 1
2 1
3 1
4 1
5 1
6 1

Atoms

1 1 5 8.861242189860825 6.013290132148889 3.81722964108086 0.4065696565193172
2 1 6 -8.861242189860825 5.6004640354378985 3.926035085651171 0.2747832526767402
3 1 3 0.0 5.197094425879509 4.221551662011027 0.33345177180097946
4 1 3 0.0 5.304250766899852 4.411946936192572 0.6993990035682277
5 1 1 0.0 4.714585449849776 4.495787323195105 0.25656576646908347
6 1 2 0.0 4.316376235390764 4.382841971545035 0.44674360696505305
7 1 1 0.0 4.0047436685818125 4.7044039044280925 0.3489410600552779
8 1 1 0.0 3.5601513063593924 4.894484800135118 0.39338796308107926
9 1 1 0.0 4.907933006630104 4.510115570201081 1.0044998651445163
10 1 1 0.0 4.596075442229093 4.884981967439992 0.9185987675505016
11 1 1 0.0 4.160639551991588 4.918253925891207 1.0189754242163247
12 1 1 0.0 3.7470863766311897 5.184212216723412 1.0293320620122548
13 2 5 8.861242189860825 3.70607105247618 6.080202267581058 12.89249044246463
14 2 6 -8.861242189860825 4.1146260396005605 6.154116151710314 12.727410984747273
15 2 3 0.0 4.516411173203163 6.456306649945205 12.70041666779986
16 2 3 0.0 4.355151444763797 6.8019126620321195 12.890684906564736
17 2 1 0.0 5.030588886975869 6.662486130189063 12.616494869582281
18 2 2 0.0 5.1521928487322475 6.927554450140148 12.266571872054833
19 2 1 0.0 5.582924062633589 7.071781479945475 12.327821009208535
20 2 1 0.0 5.966212249284888 7.338186003848063 12.194077081250379
21 2 1 0.0 4.525959868042728 7.241859170744095 12.698167542277698
22 2 1 0.0 4.978253119133787 7.41577022468699 12.799876515111068
23 2 1 0.0 5.246257636113599 7.670037702905188 12.54628523109584
24 2 1 0.0 5.664311693050723 7.9235766564034265 12.493218237616636
25 3 5 8.861242189860825 4.507361832739728 0.9217753536834679 2.6690039384551856
26 3 6 -8.861242189860825 4.245789883377437 1.089054137065449 2.990297559724872
27 3 3 0.0 3.873736321930861 1.0135799894163209 3.3209921082232197
28 3 3 0.0 3.739736871090042 0.6316697601195748 3.187429605167491
29 3 1 0.0 3.5175447106820315 1.060532390703403 3.7509392860480846
30 3 2 0.0 3.087738460038565 1.2081082951862907 3.7195899434872772
31 3 1 0.0 2.880549554411884 1.1596712290621467 4.125556542566519
32 3 1 0.0 2.4872490402981526 1.1858993505502589 4.409097428311346
33 3 1 0.0 3.2365734871165106 0.5629156067863492 3.230913613384935
34 3 1 0.0 3.0202971669015053 0.4694301001760804 3.666394919744859
35 3 1 0.0 2.6074599263938683 0.575298566363847 3.804757456750384
36 3 1 0.0 2.2564708163898404 0.5517756019154372 4.14844425612102
37 4 5 8.861242189860825 7.4321938559314 2.5680727762356006 13.266457993186833
38 4 6 -8.861242189860825 7.102863778613466 2.5463331572831125 13.56762365569353
39 4 3 0.0 6.925255093712679 2.6861061278579967 14.017510036571474
40 4 3 0.0 7.276614099983161 2.8674678372616067 14.176585482082297
41 4 1 0.0 6.593307873563486 2.7920088488154824 0.18275516223391133
42 4 2 0.0 6.569244434919318 2.5377051849193277 0.5599095595365827
43 4 1 0.0 6.300051159162771 2.7462086039192544 0.8667378113489984
44 4 1 0.0 6.099346457253348 2.7745821109608326 1.307964747717907
45 4 1 0.0 7.333138755601818 2.801912025801884 0.40534488662517276
46 4 1 0.0 7.069187454931942 3.0593791191234008 0.7357981534453362
47 4 1 0.0 6.935696909101573 2.938338566151546 1.1460619340057139
48 4 1 0.0 6.714084019900841 3.051315360203785 1.5703157172596465
49 5 5 8.861242189860825 7.373765089966422 0.0002668088948436509 11.943909891513663
50 5 6 -8.861242189860825 7.162807336230863 0.39382148024694574 11.928314574033111
51 5 3 0.0 7.113367782556949 0.859793703433845 12.112446868065831
52 5 3 0.0 7.3602540498109015 0.8235172828462579 12.457963019121623
53 5 1 0.0 6.982002237109692 1.3998757169675538 12.183059046597206
54 5 2 0.0 6.649309873380574 1.5550288929729523 12.452759111571059
55 5 1 0.0 6.665704527765534 2.0128892427904175 12.466077780051386
56 5 1 0.0 6.509859210699704 2.440124494101365 12.63622747835792
57 5 1 0.0 7.194610334834113 1.0913079015030012 12.858764376144084
58 5 1 0.0 7.251065078329395 1.5822936226165911 12.888844908392004
59 5 1 0.0 6.991834493710146 1.8838651315533648 13.095341978407722
60 5 1 0.0 6.909229088781797 2.3488843927649596 13.232457750798568
61 6 5 8.861242189860825 4.352154218764302 2.572922489237493 10.114149996604528
62 6 6 -8.861242189860825 4.544313910797387 2.549980006684918 9.711434262638734
63 6 3 0.0 4.7372134266333505 2.793829090036847 9.315446276339094
64 6 3 0.0 4.613177649569626 3.1900255548669745 9.411850143242622
65 6 1 0.0 5.013487881313443 2.9248341959577826 8.845934130016882
66 6 2 0.0 4.822035680134184 2.97830492118274 8.43607832834675
67 6 1 0.0 5.137429048819462 3.12908288451124 8.139640644640167
68 6 1 0.0 5.266947831655511 3.288812591451468 7.699777088225978
69 6 1 0.0 4.492901344804333 3.4730664860135403 9.005386337534647
70 6 1 0.0 4.838210653041019 3.6695306047979246 8.709882891706608
71 6 1 0.0 4.815998079586953 3.760151120738917 8.271611931454103
72 6 1 0.0 5.021888273876902 3.9486534194651677 7.866712669254653
73 7 5 8.861242189860825 0.8772814122692059 9.873213326498387 2.1442943199614324
74 7 6 -8.861242189860825 0.9692516062814233 9.50835195109036 1.9033600399590846
75 7 3 0.0 0.816876433380544 9.060650296932394 1.7306634288093048
76 7 3 0.0 0.4624580357403746 9.014621052197665 1.9628683519547259
77 7 1 0.0 0.7662186157891033 8.584359425051401 1.4399533352281857
78 7 2 0.0 0.8995083840865181 8.17376296479622 1.585346685998666
79 7 1 0.0 0.7659348542024298 7.855234339437587 1.2840496589656945
80 7 1 0.0 0.7214574794174495 7.392112275034115 1.1450951367550664
81 7 1 0.0 0.3663027259930507 8.532959506316407 2.0990582751120304
82 7 1 0.0 0.18253540920157496 8.201085273094861 1.7808633326259191
83 7 1 0.0 0.24314292169690788 7.757245388867242 1.7699181269422153
84 7 1 0.0 0.14008457297063664 7.3201123404350845 1.5695160910600516
85 8 5 8.861242189860825 8.362882156405222 2.9546720379288693 8.18734733615287
86 8 6 -8.861242189860825 8.776184930494965 2.855720903028519 8.325264546693065
87 8 3 0.0 9.269972060821093 2.9500084816999372 8.297638356446523
88 8 3 0.0 9.271315699225578 3.210050016675554 7.959959791812922
89 8 1 0.0 9.820171066951673 2.9746528988719376 8.400620267408605
90 8 2 0.0 10.136908215144551 2.7225935315553422 8.191721975750365
91 8 1 0.0 0.17955284905566238 2.8615914619700353 8.323991648560956
92 8 1 0.0 0.6639563259443921 2.8421685069171163 8.296703133705726
93 8 1 0.0 9.682892061854298 3.160713830225852 7.66337553401283
94 8 1 0.0 10.123027687257824 3.3485579237934093 7.790474639372777
95 8 1 0.0 0.15962050654144733 3.1999526776495966 7.688306351620454
96 8 1 0.0 0.6477411694272224 3.2576974215282184 7.704770381438143
97 9 5 8.861242189860825 6.914328922623369 7.601626240953394 12.27071876065985
98 9 6 -8.861242189860825 7.221632951689278 7.740006365310174 12.564056180765766
99 9 3 0.0 7.327108881047376 7.895436455111219 13.031170084932034
100 9 3 0.0 6.93020225250694 7.950898653358077 13.176219356133018
101 9 1 0.0 7.58967496224384 8.03240108333662 13.506807879109953
102 9 2 0.0 7.684210069288937 8.45753369906147 13.64030025543928
103 9 1 0.0 7.857963217240454 8.44846426270836 14.064340183345413
104 9 1 0.0 8.022603379836214 8.67271313615506 0.18876925779809106
105 9 1 0.0 6.881667963931244 8.341708300875764 13.4997987525452
106 9 1 0.0 7.0333675569895355 8.314318961515745 13.970326129406779
107 9 1 0.0 7.185496704615242 8.640659364483303 14.23705740759358
108 9 1 0.0 7.342235540852859 8.788307422254741 0.405677436721934
109 10 5 8.861242189860825 1.577150801714647 9.674400228437134 12.504645710081446
110 10 6 -8.861242189860825 1.5984180818855163 9.724473485609474 12.948122923522925
111 10 3 0.0 1.6781038314120211 9.514235702080024 13.39859971499391
112 10 3 0.0 1.6832189201790528 9.104073098590806 13.282881553690252
113 10 1 0.0 1.7829377037788512 9.429468470490818 13.94243419650782
114 10 2 0.0 1.4696714955362866 9.323928009749393 14.255835434340323
115 10 1 0.0 1.6777407393090584 9.233565290493095 0.3805776533263856
116 10 1 0.0 1.6664026541833372 9.090790230225302 0.8445338717771058
117 10 1 0.0 1.4832815952808518 8.789306493291203 13.630355917987295
118 10 1 0.0 1.7282778642104177 8.660629066883253 14.040938312841831
119 10 1 0.0 1.5656662545050672 8.553501505099176 0.1709733476640256
120 10 1 0.0 1.6423826802210042 8.399793545366716 0.6317940876484016
121 11 5 8.861242189860825 9.13266791200569 2.0074115062738977 4.095462933705099
122 11 6 -8.861242189860825 8.730336954956778 1.8131106870175864 4.098405682074579
123 11 3 0.0 8.26704231266645 1.7867569801429968 3.9031042726735903
124 11 3 0.0 8.27321908613022 2.1396089139422245 3.6641323526215297
125 11 1 0.0 7.752464602504717 1.6191834410341146 3.7579820592620634
126 11 2 0.0 7.3657551731906885 1.7689540394414864 3.9464480431622015
127 11 1 0.0 7.008330066652565 1.597057302089667 3.7167067180561735
128 11 1 0.0 6.530989125382907 1.5633113918282149 3.6343934021449296
129 11 1 0.0 7.824064527302896 2.3791861831822567 3.63855310534879
130 11 1 0.0 7.45274620255025 2.213006843374991 3.3563012965946606
131 11 1 0.0 7.010907299162523 2.253147290215675 3.4191824456782856
132 11 1 0.0 6.551602373295313 2.1812081079791623 3.2587734671491804
133 12 5 8.861242189860825 4.237103002739402 3.5101935970607694 5.850444988914547
134 12 6 -8.861242189860825 4.028571894746094 3.679958551957296 6.207273104706446
135 12 3 0.0 4.050834266260337 3.8118539807527245 6.692646225750866
136 12 3 0.0 4.426085625688909 3.63705016509953 6.794037850502314
137 12 1 0.0 3.947097295606861 4.038314513029928 7.1945285185951064
138 12 2 0.0 3.7632249552096075 3.8176576052303655 7.548076723840591
139 12 1 0.0 3.769212520110562 4.08989905994676 7.916764953864171
140 12 1 0.0 3.6911519517475493 4.168951002073545 8.389444529010706
141 12 1 0.0 4.4463315771344964 3.4533299349791053 7.269041389475952
142 12 1 0.0 4.494582828908683 3.7484925820007713 7.6636421792955565
143 12 1 0.0 4.343936491207259 3.6878928520087504 8.081278701395288
144 12 1 0.0 4.315708815131484 3.8401891974487294 8.54805093999617
145 13 5 8.861242189860825 5.468631131687625 3.852826429702981 7.401536104116234
146 13 6 -8.861242189860825 5.130013665683095 3.693989066042981 7.157117261238389
147 13 3 0.0 4.633277369876413 3.630162769812193 7.105558166088406
148 13 3 0.0 4.508047614980131 3.749396905348464 7.495110406104018
149 13 1 0.0 4.1213363836603865 3.531956484279932 6.900123213501594
150 13 2 0.0 3.8864495196076363 3.145796655751758 6.956723477473482
151 13 1 0.0 3.464787868138183 3.1979369546840464 6.78477839186541
152 13 1 0.0 3.0149413386777795 3.0347400765488795 6.70247698515053
153 13 1 0.0 4.106941608396552 3.488992114619435 7.6714472995519385
154 13 1 0.0 3.646008642829742 3.576527028115886 7.513215207377741
155 13 1 0.0 3.300675730637942 3.2929536680227947 7.479775109708013
156 13 1 0.0 2.8262967092409923 3.2127811155489665 7.377774094282695
157 14 5 8.861242189860825 4.585794981837727 6.812304508765163 10.398663552606497
158 14 6 -8.861242189860825 4.20842670711952 6.725020909121238 10.621388552552474
159 14 3 0.0 3.9887170816873483 6.593263121153047 11.05480134626899
160 14 3 0.0 4.335347942212498 6.481468493632721 11.276159034364143
161 14 1 0.0 3.6179475495449727 6.5031922565411024 11.465104601207587
162 14 2 0.0 3.4364658426940466 6.098631444364383 11.569458716049882
163 14 1 0.0 3.1837371859282033 6.139089804047074 11.949687093132106
164 14 1 0.0 2.91057130421933 5.94713160574524 12.302250695653424
165 14 1 0.0 4.258946946748346 6.092172356123668 11.596163391765005
166 14 1 0.0 4.020864381419614 6.148098590630556 12.026683894414111
167 14 1 0.0 3.7712723964607457 5.851566617012324 12.251538382018616
168 14 1 0.0 3.5081456840238316 5.734775877544248 12.650275836537418
169 15 5 8.861242189860825 4.083384073949368 8.55705371769682 7.705929814896581
170 15 6 -8.861242189860825 4.5145671447950875 8.674124227847592 7.708635771405186
171 15 3 0.0 4.872367742761395 8.983326912877168 7.8814116829797545
172 15 3 0.0 4.625558487700604 9.27513189505821 8.070052246698973
173 15 1 0.0 5.3635833636828085 9.213796710260691 8.021134458098972
174 15 2 0.0 5.567854463808737 9.55184116417932 7.794211328419934
175 15 1 0.0 5.938776837833918 9.688195579753499 8.026388711811192
176 15 1 0.0 6.317696065222593 9.985574525129088 8.08766370353174
177 15 1 0.0 4.807739317172285 9.750171165208721 8.039405538379823
178 15 1 0.0 5.182804390654399 9.907038659956806 8.322032031416454
179 15 1 0.0 5.493971057414325 10.216480747848573 8.231435063099534
180 15 1 0.0 5.8802378921589025 0.11070393198440875 8.376112224813946
181 16 5 8.861242189860825 1.326724304977406 5.446323642422493 9.445497187797686
182 16 6 -8.861242189860825 1.52646801240902 5.664388796328847 9.780432565333122
183 16 3 0.0 1.7843780398511797 5.640649429040488 10.21217084732871
184 16 3 0.0 1.7449975560914777 5.223982616673476 10.292719983018742
185 16 1 0.0 2.1023448460015333 5.76289784737609 10.65701239443421
186 16 2 0.0 1.9447705597185154 5.845834558652163 11.076281625573626
187 16 1 0.0 2.2977434424875796 5.887525073205381 11.36568500596758
188 16 1 0.0 2.477514005450192 5.945453798118374 11.813005305272164
189 16 1 0.0 1.7063786962096361 5.11259755298178 10.78859631315635
190 16 1 0.0 2.0983767760484393 5.118365470900187 11.0910251334537
191 16 1 0.0 2.1151309371770397 5.210130072585766 11.529300693908398
192 16 1 0.0 2.374117018333234 5.241971080073073 11.946169571697377
193 17 5 8.861242189860825 5.567830642659205 7.955895815843072 13.13465734596134
194 17 6 -8.861242189860825 5.893106774415436 7.694048137977976 12.975714278047407
195 17 3 0.0 6.315853845898074 7.6541828006436194 12.705205955833394
196 17 3 0.0 6.320441550074607 8.04163603614454 12.527697754445677
197 17 1 0.0 6.79677269734535 7.47440498375949 12.480865672983354
198 17 2 0.0 6.84048076862939 7.2967568279792285 12.06370194108947
199 17 1 0.0 7.284710045687401 7.229438329433342 11.973088251640764
200 17 1 0.0 7.643495806049955 7.099962901951942 11.67262605021194
201 17 1 0.0 6.506684434940495 8.048888367021366 12.05330090045463
202 17 1 0.0 6.992029477994065 8.017455681534162 11.960504724416719
203 17 1 0.0 7.200338872743833 7.84257186441013 11.604401147494738
204 17 1 0.0 7.616901894518705 7.751476514631443 11.359361992668456
205 18 5 8.861242189860825 3.75096099857232 1.8073038688871614 4.527592402233741
206 18 6 -8.861242189860825 3.8490930093976488 1.9275643526174333 4.108618427342851
207 18 3 0.0 3.7773747400565387 1.8557985193388498 3.6154802733012925
208 18 3 0.0 3.557890244268128 1.4907643510584703 3.630541162584617
209 18 1 0.0 3.7619969538057303 1.9177613011416474 3.058833432843619
210 18 2 0.0 4.048117490511217 1.7187750673001692 2.7655172908192145
211 18 1 0.0 3.9107910480506183 1.8054679237778521 2.3369054986408866
212 18 1 0.0 3.9515607392863403 1.747942877037279 1.856491777019698
213 18 1 0.0 3.656386729999549 1.1748201275340446 3.242895611258374
214 18 1 0.0 3.472066694895298 1.2490737721179765 2.7893854396568556
215 18 1 0.0 3.64682642004678 1.1374479500800745 2.3921630520087556
216 18 1 0.0 3.6061284379572616 1.1140176371673587 1.902610198937562
217 19 5 8.861242189860825 0.5284326357580706 0.6536916409477198 10.738526528033683
218 19 6 -8.861242189860825 0.14355657502270702 0.7164760177669811 10.956609555873493
219 19 3 0.0 10.129254760429843 1.0202711697657758 11.060114445399478
220 19 3 0.0 10.276776310342509 1.3810092076496552 10.887616101567719
221 19 1 0.0 9.633702297822806 1.2244386355876689 11.223439184291642
222 19 2 0.0 9.560007904693467 1.4543173585498517 11.609728908599326
223 19 1 0.0 9.129069182445999 1.6103884186192292 11.613718073173862
224 19 1 0.0 8.770797043904219 1.8674568107964584 11.81700496191978
225 19 1 0.0 10.140835559397061 1.8015768334999296 11.141455357519138
226 19 1 0.0 9.684639848371534 1.9916087866925152 11.110922017895176
227 19 1 0.0 9.454247724967495 2.2227087740009437 11.418003727329225
228 19 1 0.0 9.051876559698414 2.4756993500823077 11.544338659289924
229 20 5 8.861242189860825 3.65361734065843 0.6325880724376177 7.986615398606028
230 20 6 -8.861242189860825 3.3235256362423717 0.5545892960637726 7.695776397281553
231 20 3 0.0 2.8384640219082478 0.4432467624364518 7.619637350400258
232 20 3 0.0 2.727397874339688 0.3440672479053387 8.018984258553179
233 20 1 0.0 2.331638822104715 0.37170331741759305 7.391730966222084
234 20 2 0.0 2.159060300042816 10.345521831898633 7.258016529834409
235 20 1 0.0 1.7224747216753737 0.029813054881126205 7.131040394096803
236 20 1 0.0 1.2955028827701836 10.227734078892471 6.980715277789602
237 20 1 0.0 2.3819438867926337 10.344207247384697 8.050197825168642
238 20 1 0.0 1.9026020055613955 0.04648457200575758 7.952056733271175
239 20 1 0.0 1.5996063284594448 10.133799249194448 7.787689947838672
240 20 1 0.0 1.1351167424590192 10.035501339531404 7.6594158401141526
241 21 5 8.861242189860825 4.114425191012707 9.526644759476607 5.702886799892248
242 21 6 -8.861242189860825 3.73468004088475 9.746497717678338 5.787088728942456
243 21 3 0.0 3.3184642074623403 9.96509023688867 5.606919989953867
244 21 3 0.0 3.4146852306168145 9.963963520859686 5.191720684193679
245 21 1 0.0 2.809836359731176 10.194284219641006 5.554964254825648
246 21 2 0.0 2.7263701924228987 0.26721660999784547 5.521355153906424
247 21 1 0.0 2.280593823835827 0.3324631624195078 5.437042710199265
248 21 1 0.0 1.9036415995542177 0.6218206987631802 5.337303653565719
249 21 1 0.0 3.2411757478642285 10.371024404221336 4.9387636123915994
250 21 1 0.0 2.764829044586097 0.04558067604982874 4.812537868685629
251 21 1 0.0 2.522322407395514 0.4192371682337228 4.763975870200614
252 21 1 0.0 2.0987565989127415 0.6367327670618526 4.640870339722813
253 22 5 8.861242189860825 6.14253758659893 7.502282038057951 12.519730146309577
254 22 6 -8.861242189860825 6.567892856105907 7.586717845639124 12.412142246282226
255 22 3 0.0 7.005232721599649 7.414758657397978 12.231468607960718
256 22 3 0.0 6.918221857702124 6.9975553337431196 12.226917280155384
257 22 1 0.0 7.5202929221130175 7.375926867020433 12.014358844169612
258 22 2 0.0 7.897643358166479 7.28164950732069 12.251452222005094
259 22 1 0.0 8.249728554618045 7.230451479273502 11.962493664559213
260 22 1 0.0 8.714490451670631 7.122969811204259 11.871869646081679
261 22 1 0.0 7.3193410401151136 6.702098392669569 12.334620488161063
262 22 1 0.0 7.678378493728266 6.615187234809366 12.00492743035843
263 22 1 0.0 8.1129154047553 6.532392035800425 12.076408469142633
264 22 1 0.0 8.557240124094653 6.417414051082395 11.899708418000367
265 23 5 8.861242189860825 4.2308717314098665 9.614808672735677 10.256567871415571
266 23 6 -8.861242189860825 4.369481484190847 9.23534083192684 10.447416401295705
267 23 3 0.0 4.25342834953456 8.777684688485332 10.622235188219951
268 23 3 0.0 3.8283004011588555 8.805691729094733 10.610743822948008
269 23 1 0.0 4.278617413088279 8.248830879924725 10.805567476370332
270 23 2 0.0 4.24568138841072 8.121331724189375 11.24163401432107
271 23 1 0.0 4.233614471722431 7.663769173046704 11.265575043348907
272 23 1 0.0 4.1882992361094065 7.251273705285279 11.517691407644248
273 23 1 0.0 3.5950253668420906 8.558004299809118 10.99025018558415
274 23 1 0.0 3.5471548296048634 8.065194993616885 10.992770942576833
275 23 1 0.0 3.527730795780021 7.7855065146105105 11.342319183239818
276 23 1 0.0 3.4691807540905755 7.329887500618524 11.517962309967357
277 24 5 8.861242189860825 6.2755109386152474 4.66335839490054 12.657932027881472
278 24 6 -8.861242189860825 6.534801889723522 5.026703047181505 12.677439294828023
279 24 3 0.0 6.99543454586223 5.225710495080922 12.636297154216122
280 24 3 0.0 7.223759378575094 4.866405894994088 12.615847376400005
281 24 1 0.0 7.426211603532111 5.579544870288458 12.580048339677502
282 24 2 0.0 7.697371153776855 5.717475716324716 12.919079934042866
283 24 1 0.0 8.04066164755151 5.967583593239809 12.746801211193986
284 24 1 0.0 8.455390466722903 6.21479544015876 12.79832743693879
285 24 1 0.0 7.679122029769522 4.898300172601593 12.842604944070844
286 24 1 0.0 8.061020202269555 5.134697087982789 12.634208113336163
287 24 1 0.0 8.401198395216486 5.349645817550374 12.831344491587766
288 24 1 0.0 8.826512027967388 5.593854445981962 12.794769078325764
289 25 5 8.861242189860825 9.653982211755055 7.027430950451323 3.2505204845363918
290 25 6 -8.861242189860825 10.038430466177623 7.245062926872604 3.317360065937997
291 25 3 0.0 0.039592542438486644 7.519875195503239 3.123699543347947
292 25 3 0.0 10.323780832785907 7.475414554154774 2.7093596885165057
293 25 1 0.0 0.4814835430912001 7.8581654861094 3.0587103869142003
294 25 2 0.0 0.9060036466479323 7.7195700063473 2.968883794967127
295 25 1 0.0 1.17184150190572 8.084848744970678 2.891527803737513
296 25 1 0.0 1.596815760029564 8.2838890064636 2.7668341916926305
297 25 1 0.0 0.36253854430390076 7.454858476982922 2.410490103376603
298 25 1 0.0 0.6243118790593264 7.85892890666694 2.2949013327850576
299 25 1 0.0 1.0618205954949897 7.895435826767277 2.2052337312942054
300 25 1 0.0 1.4449267460582869 8.171837527516997 2.068489157424794
301 26 5 8.861242189860825 3.366689458972506 4.23854113896907 7.592939641951005
302 26 6 -8.861242189860825 3.0287287558950027 3.949383870676865 7.550486084965958
303 26 3 0.0 2.538217502308126 3.8749085078089096 7.46486357399316
304 26 3 0.0 2.4024533420107717 4.2782030978495245 7.4887755942418215
305 26 1 0.0 2.041394420368771 3.6463878063197583 7.3428935700027775
306 26 2 0.0 1.7228474049810567 3.5344629170517186 7.648663843419027
307 26 1 0.0 1.3431412722144298 3.399863334331588 7.4300580872540944
308 26 1 0.0 0.8794824719065422 3.2556802101255444 7.430679568643132
309 26 1 0.0 1.9378489441891413 4.327611742726782 7.692473711265794
310 26 1 0.0 1.526397866088922 4.220309741191347 7.438794296220891
311 26 1 0.0 1.1326032594493998 4.069830700541576 7.5906783870147105
312 26 1 0.0 0.6654300675871114 3.9427614199536634 7.504249757524454
313 27 5 8.861242189860825 3.530381112721001 7.995583836254542 6.100385910713325
314 27 6 -8.861242189860825 3.241302649418011 7.79042032904683 5.8284056825787305
315 27 3 0.0 2.777606376886168 7.77192421007602 5.633155216822406
316 27 3 0.0 2.586704606015515 8.060104130600914 5.882472415535933
317 27 1 0.0 2.3324945521598988 7.658896365760319 5.312169644672466
318 27 2 0.0 2.000751417845094 7.365569623362317 5.4189439720376935
319 27 1 0.0 1.6687507750168358 7.390549844160811 5.103929951257753
320 27 1 0.0 1.2315783954810444 7.264151741578853 4.934600471005269
321 27 1 0.0 2.100353206622557 7.950832025034234 5.98883644515335
322 27 1 0.0 1.737199423652592 8.018180421359995 5.659075200844956
323 27 1 0.0 1.3532692732041016 7.7919332140311015 5.6122056832243095
324 27 1 0.0 0.9197652314203479 7.734558222319314 5.387150895799749
325 28 5 8.861242189860825 8.32841632348061 2.9434664215733037 13.171465201263345
326 28 6 -8.861242189860825 8.447055109503687 2.7360911840189557 13.549025814187656
327 28 3 0.0 8.437456743274073 2.726134667194395 14.052302898002738
328 28 3 0.0 8.279625843940224 3.115201102898135 14.125562259956702
329 28 1 0.0 8.467835543746693 2.566484337246355 0.3149781315046093
330 28 2 0.0 8.81022421798408 2.6659279571419963 0.5984843998147596
331 28 1 0.0 8.704105789624773 2.5228969733884403 1.0208151806092727
332 28 1 0.0 8.801364118308255 2.4854291470425163 1.4950573361991033
333 28 1 0.0 8.466176090936646 3.337874913565385 0.27084404808617973
334 28 1 0.0 8.318421181530278 3.209078758809605 0.7255296450510595
335 28 1 0.0 8.54769105775134 3.2203907685288704 1.110359832566548
336 28 1 0.0 8.560356979216037 3.1596563798132573 1.598230932059317
337 29 5 8.861242189860825 6.51535482539184 10.134143690593934 0.8539891699628042
338 29 6 -8.861242189860825 6.352807089579778 9.727199427560622 0.941203087993012
339 29 3 0.0 6.236585759949298 9.378048924793394 1.2848098587518033
340 29 3 0.0 6.421703545027576 9.553586330808493 1.6262307764279893
341 29 1 0.0 6.023938741381037 8.931819282785254 1.5486126633569557
342 29 2 0.0 6.25192438782036 8.547799583205068 1.6383135959447397
343 29 1 0.0 5.991493581620212 8.27352559529566 1.8972186872343335
344 29 1 0.0 5.925741092575299 7.867719986977163 2.1556119168080516
345 29 1 0.0 6.620522005777673 9.214141758661055 1.95032950466913
346 29 1 0.0 6.33881290243921 8.948366376458898 2.258813510952123
347 29 1 0.0 6.409493735307265 8.536886459415655 2.42152616769609
348 29 1 0.0 6.2713268242774145 8.16785409570814 2.715791898783496
349 30 5 8.861242189860825 0.7681329979829856 1.1845379632328468 0.5779353187514787
350 30 6 -8.861242189860825 1.1997017368494678 1.069700188609202 0.5640653409498966
351 30 3 0.0 1.6631298438041795 1.1257942440518378 0.7526573094515802
352 30 3 0.0 1.5950246501178986 1.4644770933881324 1.0022686642575038
353 30 1 0.0 2.202566553065104 1.0542930469976957 0.8861757843971734
354 30 2 0.0 2.550760000541274 1.2793676592311407 0.6975025642048123
355 30 1 0.0 2.938210002851831 1.1716860705005776 0.9174331048658897
356 30 1 0.0 3.4147862531291393 1.226265882914198 0.9926977339847296
357 30 1 0.0 1.9915090290179085 1.7836195965965684 1.029463948353202
358 30 1 0.0 2.392473018908787 1.6827306124281471 1.3018758543065205
359 30 1 0.0 2.8176786433888967 1.8071312061882177 1.2347075573790423
360 30 1 0.0 3.285131443143535 1.818678098126051 1.387094730551914
361 31 5 8.861242189860825 2.701089465526403 8.740462573670872 2.838480509513733
362 31 6 -8.861242189860825 2.5392883478523256 8.525124896069363 3.194965782780585
363 31 3 0.0 2.18411352221509 8.225119743141876 3.388167323678901
364 31 3 0.0 1.9089489421294388 8.22624806058701 3.0626932094152997
365 31 1 0.0 1.895048235163099 7.874755237161373 3.716218448354332
366 31 2 0.0 1.5518821144826724 7.9960667689327805 3.990107783363114
367 31 1 0.0 1.3632500621838155 7.620371660914597 4.172736932773031
368 31 1 0.0 1.024407943112498 7.40229215418823 4.443653875279633
369 31 1 0.0 1.420126961560555 8.207959846284174 3.205906323595692
370 31 1 0.0 1.2076112583695515 7.789661105837419 3.364090376074946
371 31 1 0.0 0.8732283164410523 7.73671451647323 3.65764040205256
372 31 1 0.0 0.557835877970303 7.441108946875471 3.8921873232383897
373 32 5 8.861242189860825 9.91735620912455 9.701795955783878 3.2031295148019674
374 32 6 -8.861242189860825 9.698305407419571 10.072386958683726 3.0835020849473396
375 32 3 0.0 9.27846335483836 10.348760830977618 3.1122982227551046
376 32 3 0.0 9.023191114269885 10.065939380040817 3.303343579607344
377 32 1 0.0 8.906699713935275 0.393788745988665 3.0906878914659526
378 32 2 0.0 8.588370567614888 0.44453786914827553 2.76884022088778
379 32 1 0.0 8.314552246404805 0.7949014022673366 2.8799761430168704
380 32 1 0.0 7.9256805340278484 1.0741678166034614 2.7989964925808555
381 32 1 0.0 8.537190053450812 10.091593834974622 3.151896554652394
382 32 1 0.0 8.2316464939705 0.07543315458882284 3.306923076335745
383 32 1 0.0 7.882670478265026 0.2598111126660748 3.0947735536704504
384 32 1 0.0 7.5009633785658805 0.5699128807521344 3.0967445251716725
385 33 5 8.861242189860825 2.216393596734581 0.8814735780418321 9.976619028524674
386 33 6 -8.861242189860825 1.9648789488244605 1.1242505733307193 10.254883973454287
387 33 3 0.0 1.6041146812063036 1.1346619530786692 10.60591079627079
388 33 3 0.0 1.4671784112753865 0.7322077246946599 10.575426860782004
389 33 1 0.0 1.262014873427889 1.28817340658759 11.022244223693784
390 33 2 0.0 0.8308902005845721 1.425401478567027 10.969378216830387
391 33 1 0.0 0.6372675846817988 1.4798649077831272 11.381235338957044
392 33 1 0.0 0.2533629763349253 1.577249492867253 11.662130580863895
393 33 1 0.0 0.9659550598554638 0.6786862818362811 10.650938387641531
394 33 1 0.0 0.7643759957503558 0.6968458975675612 11.102817867250717
395 33 1 0.0 0.3559119593456338 0.8355695503465556 11.224060557971153
396 33 1 0.0 0.01644075675586576 0.8994329874452723 11.574129215913688
397 34 5 8.861242189860825 5.396408499938651 6.997379989013225 8.849035692865254
398 34 6 -8.861242189860825 4.99682483801202 7.154415058614349 8.725324128457526
399 34 3 0.0 4.621229033107957 7.479435458412658 8.807595721418801
400 34 3 0.0 4.740659690415185 7.627044498070433 9.189168922516728
401 34 1 0.0 4.16658031060401 7.8022416468726545 8.752620532035905
402 34 2 0.0 3.7574344912954434 7.710247533011976 8.930473346217862
403 34 1 0.0 3.4774975853883574 8.066177747472489 8.85954181089878
404 34 1 0.0 3.0514641159595786 8.291590093060687 8.91830744737782
405 34 1 0.0 4.351120866485065 7.734434796685459 9.499842725656666
406 34 1 0.0 4.0756476323716555 8.14224445057411 9.445393315162283
407 34 1 0.0 3.6438118851807046 8.206440065545898 9.546307741266501
408 34 1 0.0 3.2559942264314956 8.507223326422064 9.577838595972256
409 35 5 8.861242189860825 10.016058011490433 0.6330526571545741 10.511915741489869
410 35 6 -8.861242189860825 10.126762841698808 0.999776627553103 10.281938270342787
411 35 3 0.0 0.11378646513701873 1.2734028818961687 10.061592389463456
412 35 3 0.0 0.4562238628899661 1.0665344254085956 10.208535537041984
413 35 1 0.0 0.3921253604127063 1.644412529175835 9.747250428165964
414 35 2 0.0 0.575968990237655 2.0317712822717957 9.901034556501306
415 35 1 0.0 0.8165451310835586 2.2296589434557026 9.564811616230543
416 35 1 0.0 1.1117962001826944 2.5782802897721098 9.40031661406867
417 35 1 0.0 0.8561688988088266 1.3689122122675692 10.300203556552876
418 35 1 0.0 1.1397238695143113 1.548053107747514 9.935972760249593
419 35 1 0.0 1.3685874025865385 1.932962449336987 9.920060723410392
420 35 1 0.0 1.6798769100716515 2.2316413471023546 9.683931394823635
421 36 5 8.861242189860825 0.3443955828304126 1.5984973903824244 10.357884036539959
422 36 6 -8.861242189860825 0.7882773826975508 1.5837130029921451 10.406690150580491
423 36 3 0.0 1.2343968435831498 1.8034691223298598 10.328180542329399