Lipid soup setup

2200 atoms
1100 bonds
800 angles
0 dihedrals
0 impropers

6 atom types
2 bond types
3 angle types
0 dihedral types
0 improper types

0 9.017783766633993 xlo xhi
0 9.017783766633993 ylo yhi
0 9.017783766633993 zlo zhi

Masses

1 72.000000
2 72.000000
3 72.000000
4 72.000000
5 72.000000
6 72.000000

Atoms

1 1 5 1.0 2.383849885720887 5.209134042104041 4.9938587680182795
2 1 6 -1.0 2.692918806976535 5.142140600866567 5.309485046830048
3 1 3 0 2.8132943747979593 5.1501782777987835 5.798283780846588
4 1 3 0 2.4695352570822053 5.3511492465021915 5.950239554068095
5 1 1 0 3.065315995274608 5.070277074806254 6.292280206140231
6 1 2 0 3.324097426184001 5.377804706300809 6.506648507992364
7 1 1 0 3.437353077444482 5.218462203303324 6.921215023467895
8 1 1 0 3.6470205399684836 5.27243417564608 7.355835805308871
9 1 1 0 2.568203184178236 5.659521529504855 6.34389239450141
10 1 1 0 2.6495226957362012 5.485891654975233 6.800399523177042
11 1 1 0 2.904540857216723 5.657833049104498 7.126265761424417
12 1 1 0 3.0696044633327215 5.6404529386577735 7.5892120206774045
13 2 5 1.0 3.905248323748829 3.633837285752341 1.5951677185747903
14 2 6 -1.0 3.460535485436221 3.6641614156111375 1.6258696032039932
15 2 3 0 3.009544783474815 3.521988455068314 1.4530306030049183
16 2 3 0 3.132617264758898 3.3195750444050187 1.0987253760834446
17 2 1 0 2.461094993842811 3.4215185758128976 1.3978926011800454
18 2 2 0 2.174561192718853 3.667089986617128 1.1427692879289673
19 2 1 0 1.7634823182201864 3.46441830845838 1.138228211989424
20 2 1 0 1.3046411705488639 3.434830611374808 0.9821576765484374
21 2 1 0 2.8076324274140303 3.3695563131328914 0.7092666339615084
22 2 1 0 2.382234996489069 3.1171409820054694 0.6873011793760702
23 2 1 0 1.9943902810196759 3.234208724023257 0.49583700154941135
24 2 1 0 1.532196859228062 3.1216064394712255 0.37107615983329056
25 3 5 1.0 2.806576199010364 6.82785136998946 7.534329642617934
26 3 6 -1.0 3.1271217416966515 6.74835629300149 7.835266105895755
27 3 3 0 3.51957432902213 6.9229943621947925 8.097871504631085
28 3 3 0 3.576056038169505 7.294919105064672 7.897541725360475
29 3 1 0 3.9271878073969333 6.990643515638973 8.47629773511162
30 3 2 0 4.367866023844213 6.899939855535283 8.40509101107681
31 3 1 0 4.611729776508577 7.037057597482238 8.768149500217724
32 3 1 0 5.035168801399408 7.107876868741757 8.994981300602184
33 3 1 0 4.064078902952439 7.437333865145215 7.860893354275553
34 3 1 0 4.313384290638479 7.624263254853223 8.245683143322733
35 3 1 0 4.751092263187721 7.597784728159912 8.337865187780965
36 3 1 0 5.132465664043625 7.720659755991498 8.62303769331837
37 4 5 1.0 3.8053452337643225 4.692653683450272 4.666658652878241
38 4 6 -1.0 4.215628292913802 4.869547537445536 4.663822647733594
39 4 3 0 4.649239409075166 4.947174321833453 4.907614703063247
40 4 3 0 4.53417442814 4.814682218509976 5.296016699722581
41 4 1 0 5.1818273422557075 5.06595746985517 5.0347847656045435
42 4 2 0 5.3251087040844745 5.45483180674326 5.223840427824625
43 4 1 0 5.771111193509828 5.419908812370261 5.323562218060626
44 4 1 0 6.179588370661322 5.596975726845706 5.517372295694311
45 4 1 0 4.7505768615008375 5.076840909567541 5.675798467427945
46 4 1 0 5.222438828196214 5.006914661362416 5.808522086347843
47 4 1 0 5.512138759895432 5.299704001331655 5.984973957699104
48 4 1 0 5.955579175629532 5.395247932974397 6.174972000002986
49 5 5 1.0 3.5200358106915033 6.932479342484973 8.830021725115488
50 5 6 -1.0 3.312063371537385 6.538311221474783 8.861812039098146
51 5 3 0 2.9046400979441644 6.260637613895354 8.759916368221612
52 5 3 0 2.6446959930467138 6.568632797816347 8.621286474979993
53 5 1 0 2.549229899913324 5.834951049982783 8.679878201886961
54 5 2 0 2.222903449982286 5.7083420247173695 8.97138471082266
55 5 1 0 1.9669072330016784 5.380093363473781 8.779548778732574
56 5 1 0 1.5869734987539295 5.0777985283927105 8.785617791152307
57 5 1 0 2.1554417956312713 6.496558986249646 8.744684528208307
58 5 1 0 1.8694634514067654 6.169478299760704 8.507211232906707
59 5 1 0 1.5213706209529767 5.934007894776554 8.662684641220755
60 5 1 0 1.1524984916955625 5.6190115961468905 8.581579861052104
61 6 5 1.0 0.6875995020401675 2.7823351301848804 5.005111669476584
62 6 6 -1.0 0.6829608923612671 2.587334539839811 5.407087937677648
63 6 3 0 0.6179326496013436 2.6342844278540385 5.9041252799508195
64 6 3 0 0.6050269264885977 3.0593991479134863 5.931713962220186
65 6 1 0 0.532272541240307 2.531388727538835 6.448189971253652
66 6 2 0 0.8558314781987947 2.5331535466370534 6.768816454381567
67 6 1 0 0.6616501000924253 2.481796812764494 7.180809597334356
68 6 1 0 0.6886610418826183 2.4625050856961868 7.665233875151035
69 6 1 0 0.8147570649394877 3.244830160009524 6.357648220435382
70 6 1 0 0.5837897876471367 3.2247627015338827 6.795152927554465
71 6 1 0 0.7600755090878405 3.194999102745328 7.206035372461522
72 6 1 0 0.6988842737198473 3.185266715152736 7.693916725461797
73 7 5 1.0 4.949131457871829 5.352888195473757 4.378120251624285
74 7 6 -1.0 5.372589731725398 5.486492444572772 4.427765614541456
75 7 3 0 5.817281073561285 5.42185053581008 4.6548121253771955
76 7 3 0 5.701498950178929 5.140793448826483 4.953562241780542
77 7 1 0 6.361031836985435 5.438690616472409 4.788913156652749
78 7 2 0 6.541196477316587 5.695914517875932 5.118869833924523
79 7 1 0 6.9851091395239315 5.592370679848246 5.166854138607899
80 7 1 0 7.411818115193844 5.64039974572603 5.393528578193671
81 7 1 0 5.94876608575578 5.1963427421803745 5.395789132883312
82 7 1 0 6.4163499116179015 5.045318313412606 5.45674766410232
83 7 1 0 6.733993577670105 5.212407466068953 5.725021083231043
84 7 1 0 7.188600740706143 5.186696132222766 5.910866599420347
85 8 5 1.0 8.16229636594113 6.683237631479227 6.144170897628159
86 8 6 -1.0 7.831118563284139 6.394540478667256 6.062888155812435
87 8 3 0 7.372973154048022 6.3127851009480445 5.870799826742631
88 8 3 0 7.255139016358888 6.716289128556994 5.800444770150657
89 8 1 0 6.910067619141709 6.073281074332484 5.665159717283751
90 8 2 0 6.5218782083067595 6.013583455028225 5.895897701846653
91 8 1 0 6.200422218244976 5.850607909998875 5.612724098321806
92 8 1 0 5.744020509223703 5.7131230982063 5.5201819502123985
93 8 1 0 6.757968717723364 6.801611650648348 5.873473154506013
94 8 1 0 6.4155741799203945 6.660479244793746 5.544829610036857
95 8 1 0 5.989903309293153 6.539561040839477 5.615327899246147
96 8 1 0 5.552022523065752 6.405485082540142 5.436019908017421
97 9 5 1.0 0.325170945666698 0.6156422601692007 2.288780953688738
98 9 6 -1.0 0.73682790678177 0.4485101998481734 2.241483089996114
99 9 3 0 1.2338061987702957 0.5289785857257185 2.2455451241416493
100 9 3 0 1.2341591629424065 0.9549227929887281 2.2604322328275357
101 9 1 0 1.7899575034824142 0.4630690496214939 2.2623744719531715
102 9 2 0 2.067335170365854 0.4881623788248512 1.9019208734152697
103 9 1 0 2.5026624026103437 0.4641710891345601 2.0433312352803434
104 9 1 0 2.980238912992272 0.47810510369536546 1.9567566280475
105 9 1 0 1.6175158873438802 1.1699282930469692 2.0023592967342734
106 9 1 0 2.0805414063429346 1.1787290122046945 2.177541690024328
107 9 1 0 2.467579634784583 1.1778665257832701 1.9517374013771909
108 9 1 0 2.958826483899363 1.2011777223548326 1.9523874849832799
109 10 5 1.0 3.464522047652599 4.660176165555737 3.258506691951091
110 10 6 -1.0 3.8620989106843964 4.819547572852404 3.1313648040871445
111 10 3 0 4.329247011824331 4.7235513254563735 2.9700066433322485
112 10 3 0 4.336942482816426 4.3015825198912365 3.0294484227957508
113 10 1 0 4.843196776928707 4.767581960107469 2.7512636210627237
114 10 2 0 5.228578741675476 4.795744049566907 2.9924740684325037
115 10 1 0 5.587407007415503 4.781033813342704 2.7076791313045834
116 10 1 0 6.065695873134542 4.76672657812532 2.6251945473054477
117 10 1 0 4.791964286414726 4.121758707088406 3.1723117775866894
118 10 1 0 5.166077140052168 4.068070827315078 2.852442837035153
119 10 1 0 5.607073883408404 4.095145310157115 2.9271138197362414
120 10 1 0 6.068345704694438 4.056199176409048 2.7610451387243313
121 11 5 1.0 3.87138480384282 1.082233716386727 2.606618081625099
122 11 6 -1.0 3.4416377276881818 0.9608937172365114 2.6216421381445256
123 11 3 0 2.9583637126498963 1.0925734130746694 2.570791690283029
124 11 3 0 3.004998029715531 1.515353021229282 2.5437202719585326
125 11 1 0 2.4018702754898023 1.0844706086461022 2.506131296003658
126 11 2 0 2.098824603712929 1.152060010346775 2.839432714467756
127 11 1 0 1.6772180549803508 1.168270461826893 2.6603589562392607
128 11 1 0 1.1982285759386861 1.2352488062385072 2.703389445373776
129 11 1 0 2.626161227978285 1.7788467152009393 2.7601576403346617
130 11 1 0 2.183542121939813 1.8292527769866127 2.544040748986876
131 11 1 0 1.7806709336623188 1.8773714193327296 2.7342151764059244
132 11 1 0 1.2966475633762164 1.951779174117838 2.688914356278534
133 12 5 1.0 4.127221159971155 2.148419242319934 3.711455889262612
134 12 6 -1.0 4.560299848399897 2.2527889598195747 3.6770832427334357
135 12 3 0 5.027291658421771 2.1058264506057864 3.559610887632118
136 12 3 0 4.959460726304572 1.6868966720923788 3.5202786665854378
137 12 1 0 5.571156422780632 2.096327830027511 3.425251437178427
138 12 2 0 5.9103119191621705 2.0013537996945967 3.7141256741599316
139 12 1 0 6.305117720233765 1.9781813814945788 3.482449844534909
140 12 1 0 6.782392809588427 1.8913891775719731 3.4613727226337168
141 12 1 0 5.350682106895008 1.3992505210956714 3.675188016621552
142 12 1 0 5.760209064836148 1.342966752956273 3.4026467115238215
143 12 1 0 6.181250962961744 1.2706734585002137 3.537866201720322
144 12 1 0 6.652147898540065 1.1805772036652424 3.428294115004995
145 13 5 1.0 5.996535641610827 4.739964166385108 2.3975524339151053
146 13 6 -1.0 5.69681277406028 4.607705291736759 2.701370570101152
147 13 3 0 5.404135132624527 4.727302031720916 3.0931811135322027
148 13 3 0 5.559182264713719 5.1149734460690155 3.178746758611907
149 13 1 0 5.008097555755097 4.726952324229586 3.4895214761528783
150 13 2 0 5.075509519077369 4.617517861735043 3.926527846329216
151 13 1 0 4.691906580815748 4.697959361634528 4.1641414452843994
152 13 1 0 4.4455669764574095 4.716638483121759 4.5821564359162235
153 13 1 0 5.56439352306751 5.229967541747067 3.6752752918186866
154 13 1 0 5.15339619485282 5.357058043463852 3.920404146494406
155 13 1 0 5.051362491349966 5.293328797718041 4.352045916386614
156 13 1 0 4.742482414141694 5.3597622995664524 4.728937132781294
157 14 5 1.0 7.808768841357785 8.724397308067175 4.553244056105419
158 14 6 -1.0 7.437596479690426 8.477168740398374 4.526026774936238
159 14 3 0 6.940203514468203 8.443825597006484 4.5965076722855285
160 14 3 0 6.877993772853807 8.803144077992073 4.817121351734752
161 14 1 0 6.403371521739478 8.284251301347096 4.579803679411257
162 14 2 0 6.18719567708129 8.058472642108626 4.911144656614392
163 14 1 0 5.74239684189308 8.02380546134005 4.8060996455465945
164 14 1 0 5.287904812594488 7.891845167247909 4.914691167936903
165 14 1 0 6.515217055596207 8.7662412940957 5.173242990363206
166 14 1 0 6.033319740016467 8.770726478350198 5.059604021782386
167 14 1 0 5.691860123992796 8.571874142738482 5.2709094646281605
168 14 1 0 5.208596627348088 8.490735705672366 5.312625745630801
169 15 5 1.0 5.734375651223063 1.5510175988298647 5.754973237152088
170 15 6 -1.0 5.719430627592912 1.9692160775187184 5.911556588190939
171 15 3 0 5.966428753043538 2.3949191924684317 6.017612554081395
172 15 3 0 6.3663721706327525 2.2564368749277413 5.967431594093923
173 15 1 0 6.096479472315569 2.9265571866589637 6.137526778342413
174 15 2 0 6.214961363304752 3.0802670633124714 6.5496313248860325
175 15 1 0 6.34293660385563 3.5191739640511086 6.516991750020359
176 15 1 0 6.520598747204959 3.9268896025345787 6.7118577645134465
177 15 1 0 6.699887056935108 2.468457987423724 6.289310844766612
178 15 1 0 6.868268940021586 2.9299907778186545 6.227715555503642
179 15 1 0 7.00050975733699 3.225638132799266 6.53737975856599
180 15 1 0 7.191875648602619 3.664405940587372 6.650203549356865
181 16 5 1.0 4.45385372667345 5.674311624377417 5.4410056650918515
182 16 6 -1.0 4.88246624026572 5.589587439136652 5.347492068439075
183 16 3 0 5.221593533565146 5.280961130795518 5.1395941014117446
184 16 3 0 4.971585532286135 4.943590376757711 5.066606486667314
185 16 1 0 5.688426234354177 5.064961238723898 4.91746161002587
186 16 2 0 5.9774057897066415 4.78777042785349 5.134604219645513
187 16 1 0 6.295644540124172 4.6392545837740045 4.840071686047764
188 16 1 0 6.680250333292948 4.363452756297961 4.731534234125518
189 16 1 0 5.208151165300256 4.495639887135748 5.12289541690223
190 16 1 0 5.520738623297622 4.318361647095303 4.782277652345278
191 16 1 0 5.87732787078316 4.052750223897926 4.837789735482894
192 16 1 0 6.245924623773808 3.791730285803416 4.643181598804639
193 17 5 1.0 5.850567141093797 1.7504316850815989 0.8428483187079705
194 17 6 -1.0 5.505698556334977 1.807368983088946 0.564540089448387
195 17 3 0 5.008857586528215 1.8635431637412538 0.5056113519386886
196 17 3 0 4.88190567480756 1.7705688896107363 0.9017037840173892
197 17 1 0 4.500397365572621 1.977433609186867 0.2996289794593549
198 17 2 0 4.204957939359592 1.6667637644061732 0.14569836217355442
199 17 1 0 3.8072044201452684 1.8716448686549416 0.0462089525266553
200 17 1 0 3.34274560745164 1.8550307420845495 8.923384665488712
201 17 1 0 4.435501391067224 1.525491040444225 0.9229510626458215
202 17 1 0 4.003803565565851 1.7584670897946904 0.8557342291343955
203 17 1 0 3.6207068045121953 1.5991613638469035 0.6864845074803749
204 17 1 0 3.146217438977261 1.6656288822664216 0.5755376181643665
205 18 5 1.0 3.3581096689747363 5.82873180486591 2.358065663830687
206 18 6 -1.0 3.7824294292295013 5.733035413436135 2.4601764314127177
207 18 3 0 4.255803945878933 5.895411925996819 2.515217498903424
208 18 3 0 4.215493337257499 6.283556476238008 2.343843401559981
209 18 1 0 4.796293335901954 5.942201597822001 2.6552657531348185
210 18 2 0 5.146750072405857 5.868297067623267 2.3738176438672847
211 18 1 0 5.5375261704373155 5.98156156785069 2.584880349604235
212 18 1 0 6.0190379944456875 6.04413056586933 2.5852359827795537
213 18 1 0 4.6281596365282445 6.440304006801414 2.0890334318739816
214 18 1 0 5.035030415924414 6.601581389670688 2.320560383802389
215 18 1 0 5.462587522931087 6.578413937939574 2.1884804823870443
216 18 1 0 5.936195568318291 6.68712053835347 2.2642801897114033
217 19 5 1.0 3.6639588919487993 8.919565800404328 5.9913517374303
218 19 6 -1.0 3.6949737622492917 8.662858264593444 6.355729269681782
219 19 3 0 3.4613579975226942 8.43500805000463 6.7391181559813305
220 19 3 0 3.0767192734220026 8.614708179439729 6.7015530965131624
221 19 1 0 3.335097294768034 8.10132649676093 7.1711441084367324
222 19 2 0 3.3373783593105744 8.227845738071908 7.608731265786876
223 19 1 0 3.1732817494350796 7.8861845635615895 7.86645634414958
224 19 1 0 3.0339974563684904 7.704347183021664 8.294596152379556
225 19 1 0 2.8429587949123487 8.696484260006976 7.147041698922827
226 19 1 0 2.629965746115593 8.330512699343014 7.403669313902809
227 19 1 0 2.577269924349929 8.290370710011238 7.8468382230000575
228 19 1 0 2.3975535219259583 8.042414695461634 8.231659130446566
229 20 5 1.0 2.8154503821290042 5.218032383924701 7.298220580681384
230 20 6 -1.0 3.251047834475461 5.289729648274077 7.229329152146149
231 20 3 0 3.7267657143825907 5.18501793071819 7.356636021160083
232 20 3 0 3.654999683290397 4.96308266606761 7.713349622492296
233 20 1 0 4.284707187490051 5.133790030856568 7.359565610324335
234 20 2 0 4.5703612270646055 5.397876565233064 7.596535891142167
235 20 1 0 4.996515475909422 5.233643291789997 7.5577768967905605
236 20 1 0 5.468486874958403 5.242158934372714 7.671527171335427
237 20 1 0 4.008424335060902 5.032509132970866 8.073991224026488
238 20 1 0 4.454789835287691 4.819617737471313 8.049618108706321
239 20 1 0 4.846540802820783 4.966707130921511 8.209876652006997
240 20 1 0 5.326357104157883 4.893702244421342 8.289336734927767
241 21 5 1.0 8.564564058607568 5.6325947277418935 2.0966502878407196
242 21 6 -1.0 8.139830501354615 5.510172157060749 2.031490586624358
243 21 3 0 7.678241077200833 5.44983649841283 2.2232557966074813
244 21 3 0 7.767755425641793 5.505543619287164 2.6362135624827925
245 21 1 0 7.125900832001478 5.379364397215049 2.285589608588724
246 21 2 0 6.923119001326563 4.986604413161181 2.3956530722325082
247 21 1 0 6.47584652211672 5.060381163719183 2.463377454666354
248 21 1 0 6.033294708300602 4.907190117246256 2.5916312577931047
249 21 1 0 7.487417219617441 5.216547682442607 2.9487567151406346
250 21 1 0 7.015082308623792 5.322725596828761 3.052607267253255
251 21 1 0 6.6791713962481385 5.044141753929508 3.154301968943936
252 21 1 0 6.211271822237187 4.975762790884884 3.2894374835683466
253 22 5 1.0 8.041174662493292 5.284813004426992 3.9569679570216367
254 22 6 -1.0 8.151723645822956 4.855230199495252 3.9034030139777998
255 22 3 0 8.235525349174852 4.4715986871397515 3.5883106129299143
256 22 3 0 8.090850926630313 4.646373235840023 3.227515121165305
257 22 1 0 8.398297404764259 3.9847501925267657 3.3637769431997473
258 22 2 0 8.125359162627413 3.6285281406883416 3.2856398347403024
259 22 1 0 8.358152909992903 3.3058859932834 3.058062622649719
260 22 1 0 8.38063906815266 2.878515994546853 2.8286767043395047
261 22 1 0 7.8631675277135304 4.314676482325708 2.9145791578937685
262 22 1 0 8.120368338452629 3.994334790595143 2.63819555071849
263 22 1 0 8.002760640874975 3.5855541764625882 2.4972922153803547
264 22 1 0 8.103442516476374 3.182717724451284 2.2337523623868822
265 23 5 1.0 0.6471616818041444 5.135518354319298 2.781872416748473
266 23 6 -1.0 0.5493193858139112 5.320421860526825 2.3870696233958224
267 23 3 0 0.2804305950030823 5.6584346424675305 2.1283704518162345
268 23 3 0 0.005945100720060381 5.7751790286862255 2.432802184729004
269 23 1 0 0.0906931015910395 6.0070198572923985 1.732871274535873
270 23 2 0 8.75231480760115 5.925066310885152 1.4609759918284375
271 23 1 0 8.66296066517862 6.29869882188173 1.2109822808759647
272 23 1 0 8.392041552876243 6.541521613726322 0.8894102531777017
273 23 1 0 8.556682377794896 5.88250042833079 2.25919032651731
274 23 1 0 8.453791567443997 6.306562785511086 2.0252169237791033
275 23 1 0 8.14822986831626 6.386329204475064 1.7073234237490627
276 23 1 0 7.917810422186817 6.704036470424414 1.4109515740941367
277 24 5 1.0 8.42560065398251 6.141855227217594 7.93333688141837
278 24 6 -1.0 7.98238799406272 6.100605747388583 7.894701591433766
279 24 3 0 7.541561209323381 6.315257538194563 7.780353707696765
280 24 3 0 7.66797179127484 6.721405921152302 7.753631543092211
281 24 1 0 7.005390227789656 6.405199155771305 7.6448444769445105
282 24 2 0 6.681004892588341 6.538628574655484 7.935474114864824
283 24 1 0 6.2949997832243 6.623908514747676 7.703505024423468
284 24 1 0 5.834856510740629 6.777676378351207 7.683699581769859
285 24 1 0 7.320091649812892 7.0567171164917015 7.915918920911305
286 24 1 0 6.9244559454713 7.178021118854788 7.644042693039694
287 24 1 0 6.5168665437925295 7.304992979396909 7.7801894418041435
288 24 1 0 6.06411234268721 7.46369204361934 7.6720435142067505
289 25 5 1.0 4.446957449596605 7.83303781406364 6.460673414138428
290 25 6 -1.0 4.343495697129157 7.528605849118961 6.7709128565499626
291 25 3 0 3.9856177964060473 7.282625289977048 7.025659900994488
292 25 3 0 3.646658847267151 7.511687164239414 6.906128704866814
293 25 1 0 3.7062205533446284 6.912912288490923 7.340590122999341
294 25 2 0 3.5822855284137116 6.9792769786061175 7.773869108707648
295 25 1 0 3.320528633709475 6.629394365035632 7.9122445268762815
296 25 1 0 3.0416771049103195 6.411146560416558 8.244476920410099
297 25 1 0 3.293183037718939 7.56206009596699 7.269871475731506
298 25 1 0 2.983568123459866 7.194431345463024 7.388811214642048
299 25 1 0 2.7929917128071047 7.1029050516238055 7.783894092236463
300 25 1 0 2.48419190939731 6.8303243279536225 8.05261277740183
301 26 5 1.0 4.792241495337582 1.4120546349730336 5.805678347783372
302 26 6 -1.0 5.2105902133453235 1.2573400753866204 5.779612616932407
303 26 3 0 5.630185616011093 1.117257622798253 6.02001995561729
304 26 3 0 5.534125344847076 1.2552726433347918 6.411650517116057
305 26 1 0 6.127558107049233 0.8944205404175405 6.150003829635547
306 26 2 0 6.5186923341523 1.12619484067538 6.178102443188643
307 26 1 0 6.848167252398392 0.8494929178830506 6.336104328390122
308 26 1 0 7.302895033089768 0.7714558258512543 6.487436745216787
309 26 1 0 5.935442620088265 1.4297584966653871 6.672975056957612
310 26 1 0 6.268187848521086 1.1259775032414012 6.878295966293204
311 26 1 0 6.704826390051462 1.19444124539073 6.952095769752646
312 26 1 0 7.1328943742465745 1.0389627331727502 7.13770701511539
313 27 5 1.0 6.151689205274906 3.3583857362719556 3.0113754418501113
314 27 6 -1.0 5.792098221815798 3.49112189948454 3.240955716965478
315 27 3 0 5.304008441777138 3.6145330824054933 3.2368168153197945
316 27 3 0 5.241762256327766 3.633866299778044 2.8156258166117576
317 27 1 0 4.775995550040755 3.7284469865318166 3.385671026671401
318 27 2 0 4.597830501454409 4.146401855007971 3.4183173945311864
319 27 1 0 4.148395261873297 4.1137811602584184 3.502139391967345
320 27 1 0 3.710850287288374 4.314832818929163 3.5645995265261483
321 27 1 0 4.910308137105265 3.993647586422127 2.6724930943778693
322 27 1 0 4.4213389500121005 3.937712116061822 2.726708516998102
323 27 1 0 4.107684680145204 4.250147639742421 2.795932454087883
324 27 1 0 3.633749664200363 4.3709479522605 2.8475094491185184
325 28 5 1.0 5.031616600692265 7.067860512478291 5.791352115063884
326 28 6 -1.0 5.160980323704986 7.027956016396564 5.365553658640795
327 28 3 0 5.2661584714966585 7.253567485565199 4.9279281267511985
328 28 3 0 5.120457867471037 7.644395178473997 5.015536726396449
329 28 1 0 5.4530095783551396 7.368126197676446 4.412278504453848
330 28 2 0 5.196622066461705 7.370810423422641 4.035777401358028
331 28 1 0 5.446589075753984 7.522731291217468 3.6829051642078054
332 28 1 0 5.4908866849626685 7.655771680793507 3.2180324728096847
333 28 1 0 4.912255624891513 7.881363098925847 4.615175121838143
334 28 1 0 5.187340761814041 8.081271851425429 4.255281230615684
335 28 1 0 5.089399245427619 8.132898499730425 3.821081899107405
336 28 1 0 5.211366207317984 8.303922637745146 3.376399871493236
337 29 5 1.0 1.842507987404506 7.91635604588498 5.166787292449181
338 29 6 -1.0 2.1997370578506534 8.17490523716189 5.0948750261118585
339 29 3 0 2.604706068383125 8.406537158698946 5.284152170501699
340 29 3 0 2.5267374782346055 8.352325971410293 5.699642560778841
341 29 1 0 3.0953866886615895 8.67028748180681 5.344151033606474
342 29 2 0 3.144664384656492 0.09814522496857947 5.4245885583043325
343 29 1 0 3.5870895404597176 0.19074324646341267 5.5005349834025346
344 29 1 0 3.9439183467007313 0.49793819966011377 5.619165107801743
345 29 1 0 2.678204006585919 8.742539861169702 5.99047308629319
346 29 1 0 3.154219963176464 8.816211281781111 6.105104171419142
347 29 1 0 3.3682944969908992 0.18349003351729642 6.186871291021491
348 29 1 0 3.778227646375688 0.4208433621191361 6.319104084596264
349 30 5 1.0 2.896056700066839 8.916714585393708 8.743230410118288
350 30 6 -1.0 2.8847901391508004 8.71959359868067 8.342421168291287
351 30 3 0 2.9570711559899627 8.303215544553236 8.068772023215482
352 30 3 0 3.1538583725916642 8.062762982754721 8.360504049562149
353 30 1 0 2.9505314627156887 7.918552664657808 7.661435222922824
354 30 2 0 3.295740791377591 7.833159947381538 7.376771482351417
355 30 1 0 3.1929752686393464 7.46875238946831 7.11845258906346
356 30 1 0 3.309709208759978 7.137490631083607 6.783180345500606
357 30 1 0 3.511466904755255 7.755343516936475 8.167111202479468
358 30 1 0 3.3975669183672483 7.339553060162977 7.9235869860701635
359 30 1 0 3.6211910260602567 7.136179427391511 7.592802562492875
360 30 1 0 3.6678780608318933 6.756836040368554 7.283309078287351
361 31 5 1.0 7.218704613900891 0.3463947948392221 5.056593531377674
362 31 6 -1.0 7.205015397324837 0.04949804383805656 4.722982093135489
363 31 3 0 7.457964162061448 8.778399894560394 4.397339274955197
364 31 3 0 7.849990242872958 8.934459629736478 4.457431947636511
365 31 1 0 7.600922778735909 8.38614148725616 4.023671316136279
366 31 2 0 7.654750582776657 8.457639221447964 3.5770333380458346
367 31 1 0 7.816342743650653 8.076351749503734 3.3805896849543866
368 31 1 0 7.984240063895247 7.834000441824226 2.9947853612764392
369 31 1 0 8.134930984686893 8.944444516180495 4.034938800662333
370 31 1 0 8.34288092799074 8.535860189921692 3.847923763201611
371 31 1 0 8.438132119199782 8.437893469247712 3.4211724970720763
372 31 1 0 8.636161608332932 8.132639795789597 3.090307241214826
373 32 5 1.0 6.528939923860825 4.614919002411025 4.489907462035234
374 32 6 -1.0 6.858657825245248 4.856866877738937 4.309965809651764
375 32 3 0 7.115400257377588 5.28986846431233 4.3014785531654605
376 32 3 0 6.863310840679247 5.523974432359946 4.553064602068861
377 32 1 0 7.5040365506478794 5.683957418919846 4.2143734727182744
378 32 2 0 7.476502069221469 6.013791763011807 3.9014102164961812
379 32 1 0 7.8285416183977725 6.302596721554594 3.9537755036080386
380 32 1 0 8.068301017939918 6.708040288594392 3.8358789942232567
381 32 1 0 6.836345458866074 6.014860093376634 4.418545014146515
382 32 1 0 7.202344509247958 6.334430716933791 4.513824951697486
383 32 1 0 7.325575090053519 6.698802580465138 4.283967865771179
384 32 1 0 7.6119576572413665 7.0963255116414405 4.241214554093705
385 33 5 1.0 6.1171870360145055 3.8291317667065394 4.530439826291619
386 33 6 -1.0 5.737753767253574 4.03085825416368 4.652785590203299
387 33 3 0 5.2443690619617644 4.09573703408421 4.576356796839107
388 33 3 0 5.205660424680964 3.8936225950363896 4.203125483552167
389 33 1 0 4.702867464470404 4.2269240571645605 4.635496906070046
390 33 2 0 4.499065020427625 4.587885363968445 4.446641562624983
391 33 1 0 4.048185974837414 4.566610710139085 4.52625153002583
392 33 1 0 3.596785846209662 4.735928845321475 4.468476659873758
393 33 1 0 4.862681853214772 4.103251892529753 3.8897365228493874
394 33 1 0 4.3754797034294945 4.043798170523372 3.954991982429868
395 33 1 0 4.040669879406664 4.321988602610068 3.8486934586266877
396 33 1 0 3.558309405582297 4.414029523672364 3.821783545928415
397 34 5 1.0 6.2596109582156165 1.1134994407279386 0.5351988399258509
398 34 6 -1.0 6.6385535917016245 1.3430669346465438 0.47746744990141576
399 34 3 0 7.132849731528526 1.3349268223469324 0.38215664946965333
400 34 3 0 7.20280950419561 0.91609122027619 0.41866126474025317
401 34 1 0 7.657287732032409 1.476521661310896 0.2448713522361727
402 34 2 0 7.995687802150773 1.5459828437844276 0.5417810668438239
403 34 1 0 8.387584682214788 1.610509311484488 0.31301165909946277
404 34 1 0 8.86825451368118 1.6783200878523934 0.30174869437722635
405 34 1 0 7.657509668365388 0.7995496448374911 0.6172996433108645
406 34 1 0 8.075668484177834 0.83088191671452 0.35401187618480656
407 34 1 0 8.491420590935723 0.9211634921743908 0.4946757798288343
408 34 1 0 8.971080182702488 0.9686254896452671 0.39699601692111663
409 35 5 1.0 6.225026738678787 8.260546236712269 1.7791615162431518
410 35 6 -1.0 6.248727129721518 8.330319530150012 2.219844674667439
411 35 3 0 6.075766259073359 8.220713767156745 2.6797905387626217
412 35 3 0 5.731328909275518 7.994321212226006 2.571349119434864
413 35 1 0 6.0174974549087485 8.165771555419898 3.2343332940673113
414 35 2 0 5.749206401630548 8.424650029969046 3.496052013499285
415 35 1 0 5.7472980123369615 8.258164258745312 3.9230896202598675
416 35 1 0 5.5865597633146535 8.26198554989945 4.381256899409132
417 35 1 0 5.336012840065759 8.056397174837135 2.8870438514678285
418 35 1 0 5.3184659015820035 7.84092583892069 3.332491001160245
419 35 1 0 5.117517720157588 7.983187273627852 3.706881737566471
420 35 1 0 4.991284681178865 7.905922434297323 4.175883513397775
421 36 5 1.0 1.2164204675412404 0.8505580889387703 7.67234450979145
422 36 6 -1.0 1.6022161470032783 0.8227995140458134 7.896002334067441
423 36 3 0 2.078303700387347 0.6594903674416442 7.908243580048097
424 36 3 0 2.0725264920554833 0.40566544407865174 7.565913694654919
425 36 1 0 2.618288688161014 0.582898272198417 8.036623607916734
426 36 2 0 2.7827849233107935 0.23299131036083015 8.27745746897923
427 36 1 0 3.240746675473189 0.2517160020812814 8.279097906050549
428 36 1 0 3.6744110103681535 0.06658273344977919 8.394983885072197
429 36 1 0 2.3628363915422876 9.00716089682709 7.612983701296104
430 36 1 0 2.856053876098885 0.006468232915843197 7.572941698895489
431 36 1 0 3.164159002238294 8.765453391140861 7.770125426575318
432 36 1 0 3.6351709093746143 8.63647812343593 7.828267192249751
433 37 5 1.0 5.097528761056238 7.537669664208404 8.105379328596653
434 37 6 -1.0 4.87268898209938 7.15275954390139 8.135759259725686
435 37 3 0 4.7719763257294705 6.736394907049131 8.400290040507
436 37 3 0 5.075947292840935 6.768677435504 8.697291232086306
437 37 1 0 4.537297089112901 6.26776722560727 8.598394355749543
438 37 2 0 4.68405103944873 5.845204745813627 8.512376504773092
439 37 1 0 4.443732213161167 5.546822648805831 8.763965966942042
440 37 1 0 4.354627059637057 5.095867687971326 8.92039019000892
441 37 1 0 5.267294555911954 6.320296560542348 8.846060178532706
442 37 1 0 5.022046862285609 6.017840303999514 0.13410763409474846
443 37 1 0 5.034242687418978 5.570559340134976 0.1581474374059706
444 37 1 0 4.895388844847516 5.153965654843601 0.3795895585979032
445 38 5 1.0 2.9841169098273426 1.9500902044061839 4.311619353677507
446 38 6 -1.0 3.1951599181928114 1.5831036139015562 4.168744029911033
447 38 3 0 3.616561966201148 1.3757652901038908 3.987332295521762
448 38 3 0 3.8368245200909588 1.7307647122166456 3.903011266453124
449 38 1 0 4.014794645094004 1.0138074375050607 3.8313553291642575
450 38 2 0 4.0926466852576855 0.879083485748288 3.4032392717446336
451 38 1 0 4.470334448690919 0.619646660896284 3.3919805497490083
452 38 1 0 4.806678722322077 0.3669357766445912 3.1495380179520094