LAMMPS data file via MDAnalysis

       11264  atoms
        5632  bonds
        4096  angles
           0  dihedrals
           0  impropers

           6  atom types
           1  bond types
           2  angle types
           0  dihedral types
           0  improper types

0.000000 90.000000 xlo xhi
0.000000 90.000000 ylo yhi
0.000000 90.000000 zlo zhi


Masses

1 72.000000
2 72.000000
3 72.000000
4 72.000000
5 72.000000
6 72.000000

Atoms

1 1 5 1.000000 56.119999 21.919998 87.919998
2 1 6 -1.000000 53.379997 23.129999 86.879997
3 1 3 0.000000 51.329998 24.070000 84.090004
4 1 3 0.000000 53.379997 23.810001 81.870003
5 1 1 0.000000 48.260002 25.100000 81.770004
6 1 2 0.000000 47.649998 28.099998 80.719994
7 1 1 0.000000 45.159996 28.020000 78.620003
8 1 1 0.000000 43.040001 29.570000 76.370003
9 1 1 0.000000 52.989998 26.259998 79.229996
10 1 1 0.000000 50.470001 25.990000 76.779999
11 1 1 0.000000 48.959999 28.310001 75.199997
12 1 1 0.000000 46.669998 29.279999 72.740005
13 2 5 1.000000 55.500000 25.500000 33.910000
14 2 6 -1.000000 57.309998 23.120001 32.830002
15 2 3 0.000000 59.619999 20.480001 33.559998
16 2 3 0.000000 60.229996 21.160000 36.450001
17 2 1 0.000000 61.889999 17.219999 33.360001
18 2 2 0.000000 65.080002 17.200001 32.780003
19 2 1 0.000000 66.220001 14.170000 33.110001
20 2 1 0.000000 68.820000 11.900001 33.169998
21 2 1 0.000000 63.649998 20.459999 37.430000
22 2 1 0.000000 64.779999 17.190001 38.060001
23 2 1 0.000000 67.699997 15.959999 37.669998
24 2 1 0.000000 69.910004 13.280000 38.000000
25 3 5 1.000000 72.620003 17.520000 -4.770000
26 3 6 -1.000000 74.299995 16.469999 -2.290000
27 3 3 0.000000 76.230003 17.250000 0.620000
28 3 3 0.000000 76.529999 20.240000 0.220000
29 3 1 0.000000 78.180000 17.059999 4.090000
30 3 2 0.000000 81.400002 16.870001 4.420000
31 3 1 0.000000 82.180008 17.080000 7.570000
32 3 1 0.000000 84.519997 17.270000 10.110001
33 3 1 0.000000 79.720001 21.559999 1.340000
34 3 1 0.000000 80.430000 22.060001 4.750000
35 3 1 0.000000 83.240005 21.919998 6.250000
36 3 1 0.000000 85.120003 22.299999 9.180000
37 4 5 1.000000 54.459999 12.700000 82.130005
38 4 6 -1.000000 54.599998 9.530000 81.969994
39 4 3 0.000000 56.550003 6.540000 82.340004
40 4 3 0.000000 59.290001 7.790000 82.659996
41 4 1 0.000000 57.709999 2.760000 82.770004
42 4 2 0.000000 58.920002 0.910000 80.400002
43 4 1 0.000000 59.920002 -1.930000 81.660004
44 4 1 0.000000 61.440002 -5.010000 81.339996
45 4 1 0.000000 61.959999 5.840000 81.180000
46 4 1 0.000000 63.230000 2.930000 82.709999
47 4 1 0.000000 64.500000 0.350000 81.350006
48 4 1 0.000000 66.059998 -2.770000 81.669998
49 5 5 1.000000 67.959999 59.899998 33.220001
50 5 6 -1.000000 67.659996 59.039997 30.179998
51 5 3 0.000000 68.400002 56.660000 27.600000
52 5 3 0.000000 70.430000 54.970001 29.070000
53 5 1 0.000000 68.379997 54.540001 24.230001
54 5 2 0.000000 70.520004 54.860001 21.820000
55 5 1 0.000000 69.989998 52.540001 19.590000
56 5 1 0.000000 70.840004 50.890003 16.680000
57 5 1 0.000000 73.070000 53.680000 26.949999
58 5 1 0.000000 72.559998 50.970001 24.760000
59 5 1 0.000000 73.970001 50.359997 21.970001
60 5 1 0.000000 74.430000 48.230000 19.230000
61 6 5 1.000000 10.020000 -3.960000 17.029999
62 6 6 -1.000000 11.180000 -1.940000 14.870000
63 6 3 0.000000 14.049999 -0.590000 13.210000
64 6 3 0.000000 16.230000 -1.780000 14.940000
65 6 1 0.000000 16.469999 1.260000 10.640000
66 6 2 0.000000 17.820000 4.160000 11.110000
67 6 1 0.000000 19.910000 4.790000 8.690001
68 6 1 0.000000 22.299999 6.780000 7.190000
69 6 1 0.000000 19.110001 0.380000 15.380000
70 6 1 0.000000 21.520000 0.810000 12.849999
71 6 1 0.000000 23.330000 3.360000 12.220000
72 6 1 0.000000 25.880001 4.860000 10.349999
73 7 5 1.000000 25.920000 64.019997 20.170000
74 7 6 -1.000000 24.240000 61.350002 19.760000
75 7 3 0.000000 21.199999 59.549999 20.330000
76 7 3 0.000000 19.900000 61.420002 22.330000
77 7 1 0.000000 18.220001 56.919998 20.150002
78 7 2 0.000000 17.740000 54.489998 22.240000
79 7 1 0.000000 14.910001 53.029999 21.570000
80 7 1 0.000000 12.460001 50.689999 22.270000
81 7 1 0.000000 17.940001 59.720001 24.860001
82 7 1 0.000000 14.750000 58.400002 24.189999
83 7 1 0.000000 13.300000 55.879997 25.500000
84 7 1 0.000000 10.470000 53.850002 25.810001
85 8 5 1.000000 25.000000 44.489998 6.910000
86 8 6 -1.000000 24.730000 47.389999 5.640000
87 8 3 0.000000 22.600000 50.070000 4.600000
88 8 3 0.000000 19.920000 48.670002 4.820000
89 8 1 0.000000 21.170002 53.619999 3.480000
90 8 2 0.000000 20.400000 54.430000 0.450000
91 8 1 0.000000 19.000000 57.379997 0.450000
92 8 1 0.000000 17.420000 59.980003 -1.180000
93 8 1 0.000000 17.530001 49.680000 2.290000
94 8 1 0.000000 15.809999 52.750000 2.470000
95 8 1 0.000000 14.730000 54.580002 0.090000
96 8 1 0.000000 12.970000 57.410004 -0.970000
97 9 5 1.000000 74.439995 25.850000 67.500000
98 9 6 -1.000000 72.430000 25.340000 65.100006
99 9 3 0.000000 69.050003 25.309999 63.930000
100 9 3 0.000000 67.610001 25.660000 66.570000
101 9 1 0.000000 65.790001 25.280001 61.630001
102 9 2 0.000000 63.930000 22.679998 61.070000
103 9 1 0.000000 61.300003 23.580000 59.369999
104 9 1 0.000000 58.260002 22.880001 57.900002
105 9 1 0.000000 64.459999 23.880001 66.770004
106 9 1 0.000000 61.550003 25.030001 65.159996
107 9 1 0.000000 59.109997 23.350000 63.990002
108 9 1 0.000000 55.960003 23.269999 62.480003
109 10 5 1.000000 38.000000 3.610000 23.169998
110 10 6 -1.000000 35.820000 2.920000 25.369999
111 10 3 0.000000 32.430000 2.040000 26.110001
112 10 3 0.000000 31.199999 2.480000 23.380001
113 10 1 0.000000 29.110001 0.780000 27.910000
114 10 2 0.000000 26.820000 2.700000 29.150000
115 10 1 0.000000 24.300001 0.880000 30.139999
116 10 1 0.000000 21.110001 0.560000 31.429998
117 10 1 0.000000 27.809999 3.760000 23.480000
118 10 1 0.000000 25.060001 1.700000 24.270000
119 10 1 0.000000 22.320002 2.470000 25.690001
120 10 1 0.000000 19.129999 1.560000 26.789999
121 11 5 1.000000 12.270000 85.089996 10.840000
122 11 6 -1.000000 12.530001 82.060005 11.770000
123 11 3 0.000000 10.889999 79.050003 12.780000
124 11 3 0.000000 8.080000 80.120003 13.170000
125 11 1 0.000000 10.060000 75.250000 13.660001
126 11 2 0.000000 9.900000 74.029999 16.660000
127 11 1 0.000000 8.850000 70.949997 16.510000
128 11 1 0.000000 7.850000 68.010002 18.029999
129 11 1 0.000000 6.270000 78.550003 15.889999
130 11 1 0.000000 4.890000 75.330002 15.599999
131 11 1 0.000000 4.420000 73.139999 17.869999
132 11 1 0.000000 3.180000 70.019997 18.840000
133 12 5 1.000000 18.510000 20.410000 88.050003
134 12 6 -1.000000 19.160000 21.889999 85.319992
135 12 3 0.000000 18.139999 24.270000 82.840004
136 12 3 0.000000 15.280000 24.719999 83.750000
137 12 1 0.000000 18.080000 26.849998 79.809998
138 12 2 0.000000 16.940001 26.210001 76.849998
139 12 1 0.000000 16.950001 28.940001 75.070000
140 12 1 0.000000 16.230000 30.680000 72.180000
141 12 1 0.000000 12.950000 25.290001 81.029999
142 12 1 0.000000 12.780000 28.360001 79.320000
143 12 1 0.000000 11.980000 28.920000 76.290001
144 12 1 0.000000 11.339999 31.199999 73.709999
145 13 5 1.000000 37.340000 43.360001 45.820000
146 13 6 -1.000000 39.410000 42.399998 48.029999
147 13 3 0.000000 40.260002 40.029999 50.570000
148 13 3 0.000000 37.620003 38.570000 50.779999
149 13 1 0.000000 42.220001 37.830002 53.260002
150 13 2 0.000000 42.110001 38.279999 56.459999
151 13 1 0.000000 43.720001 35.869999 57.950001
152 13 1 0.000000 44.759998 34.220001 60.799999
153 13 1 0.000000 36.810001 37.470001 54.130001
154 13 1 0.000000 38.340000 34.669998 55.610001
155 13 1 0.000000 38.959999 34.110001 58.689999
156 13 1 0.000000 40.149998 31.970001 61.180000
157 14 5 1.000000 37.579998 13.930000 39.590000
158 14 6 -1.000000 36.099998 13.530001 42.369999
159 14 3 0.000000 33.010002 13.290000 44.160000
160 14 3 0.000000 31.099998 14.170000 41.970001
161 14 1 0.000000 30.230000 12.589999 46.930000
162 14 2 0.000000 28.910000 14.830000 48.850002
163 14 1 0.000000 26.500000 13.480000 50.590000
164 14 1 0.000000 23.889999 13.710001 52.840000
165 14 1 0.000000 28.269999 16.080000 43.169998
166 14 1 0.000000 25.539999 14.559999 44.790001
167 14 1 0.000000 23.610001 15.760000 47.029999
168 14 1 0.000000 20.810001 15.420000 49.090000
169 15 5 1.000000 89.049995 66.360001 59.599998
170 15 6 -1.000000 86.520004 67.540001 61.119999
171 15 3 0.000000 84.090004 70.150002 61.409996
172 15 3 0.000000 85.299995 72.160004 59.489998
173 15 1 0.000000 80.860001 72.290001 62.329998
174 15 2 0.000000 80.750000 74.629997 64.559998
175 15 1 0.000000 77.839996 76.099998 64.459999
176 15 1 0.000000 75.639999 78.550003 65.500000
177 15 1 0.000000 84.830002 75.610001 60.480000
178 15 1 0.000000 81.739998 77.259995 60.079998
179 15 1 0.000000 80.489998 79.610001 61.840000
180 15 1 0.000000 77.930000 81.930000 62.379997
181 16 5 1.000000 74.099998 13.230000 76.889999
182 16 6 -1.000000 71.540001 11.339999 76.889999
183 16 3 0.000000 69.139999 9.480000 75.000000
184 16 3 0.000000 69.800003 10.500000 72.230003
185 16 1 0.000000 66.290001 6.920000 73.889999
186 16 2 0.000000 63.200001 7.710000 73.340004
187 16 1 0.000000 61.620003 5.120000 72.160004
188 16 1 0.000000 58.790001 3.630000 70.849998
189 16 1 0.000000 66.910004 10.809999 70.050003
190 16 1 0.000000 65.400002 8.010000 68.550003
191 16 1 0.000000 62.350002 7.580000 67.729996
192 16 1 0.000000 59.879997 5.610000 66.230003
193 17 5 1.000000 6.880000 26.750000 64.820000
194 17 6 -1.000000 5.770000 24.080000 63.489998
195 17 3 0.000000 3.450000 21.359999 63.629997
196 17 3 0.000000 2.380000 21.779999 66.430000
197 17 1 0.000000 1.160000 18.230000 62.719997
198 17 2 0.000000 1.800000 15.160000 63.520004
199 17 1 0.000000 -0.730000 13.280000 62.680000
200 17 1 0.000000 -2.330000 10.230000 62.610001
201 17 1 0.000000 1.590000 18.700001 68.169998
202 17 1 0.000000 -1.310000 16.830000 67.459999
203 17 1 0.000000 -1.770000 13.690000 67.680000
204 17 1 0.000000 -3.920000 10.930000 67.449997
205 18 5 1.000000 47.820000 38.940002 8.840000
206 18 6 -1.000000 44.799999 37.970001 8.630000
207 18 3 0.000000 42.020000 37.139999 6.540000
208 18 3 0.000000 43.080002 38.150002 3.880000
209 18 1 0.000000 38.559998 35.730000 5.140000
210 18 2 0.000000 35.899998 37.500000 4.640000
211 18 1 0.000000 33.629997 35.660000 3.190000
212 18 1 0.000000 30.539999 35.270000 1.710000
213 18 1 0.000000 40.529999 39.549999 1.720000
214 18 1 0.000000 38.279999 37.520000 -0.080000
215 18 1 0.000000 35.290001 38.160000 -0.970000
216 18 1 0.000000 32.389999 37.209999 -2.680000
217 19 5 1.000000 71.419998 94.410004 31.180000
218 19 6 -1.000000 69.479996 92.000000 31.900002
219 19 3 0.000000 66.900002 89.750000 30.850000
220 19 3 0.000000 66.160004 91.059998 28.220001
221 19 1 0.000000 64.369995 86.689995 30.570000
222 19 2 0.000000 61.230003 86.790001 31.400002
223 19 1 0.000000 59.809998 83.990005 30.550001
224 19 1 0.000000 57.010002 81.979996 30.250000
225 19 1 0.000000 62.639999 90.839996 27.410000
226 19 1 0.000000 61.170002 87.869995 26.219999
227 19 1 0.000000 58.189999 86.809998 26.600000
228 19 1 0.000000 55.730000 84.430000 25.910000
229 20 5 1.000000 12.290000 9.990000 42.970001
230 20 6 -1.000000 13.700000 7.480000 44.299999
231 20 3 0.000000 15.850000 4.640000 43.909996
232 20 3 0.000000 16.059999 4.600000 40.890003
233 20 1 0.000000 18.270000 1.550000 44.590000
234 20 2 0.000000 17.389999 -1.570000 44.470001
235 20 1 0.000000 20.020000 -3.450000 44.809998
236 20 1 0.000000 21.549999 -6.550000 44.879997
237 20 1 0.000000 16.270000 1.270000 39.480000
238 20 1 0.000000 19.230000 -0.640000 39.599998
239 20 1 0.000000 19.570000 -3.800000 39.719997
240 20 1 0.000000 21.650000 -6.610000 39.739998
241 21 5 1.000000 0.100000 74.650002 54.430000
242 21 6 -1.000000 2.810000 74.489998 52.770000
243 21 3 0.000000 6.360000 74.080002 52.789997
244 21 3 0.000000 6.860000 74.299995 55.770000
245 21 1 0.000000 10.150000 73.410004 51.739998
246 21 2 0.000000 12.380000 75.709999 51.279999
247 21 1 0.000000 15.280000 74.310005 50.760002
248 21 1 0.000000 18.689999 74.500000 50.260002
249 21 1 0.000000 9.990000 75.930000 56.609997
250 21 1 0.000000 13.090000 74.299995 56.320000
251 21 1 0.000000 15.959999 75.529999 55.689999
252 21 1 0.000000 19.410000 75.110001 55.310001
253 22 5 1.000000 32.130001 16.480000 57.589996
254 22 6 -1.000000 34.299999 14.230000 58.160000
255 22 3 0.000000 36.510002 11.740000 56.860001
256 22 3 0.000000 35.549999 11.700000 53.979996
257 22 1 0.000000 39.430000 9.070000 56.409996
258 22 2 0.000000 39.030003 5.850000 56.500000
259 22 1 0.000000 41.840000 4.390000 55.730000
260 22 1 0.000000 43.699997 1.560000 55.070000
261 22 1 0.000000 35.680000 8.410000 52.449997
262 22 1 0.000000 38.689999 6.980000 51.350002
263 22 1 0.000000 39.509998 3.900000 51.189999
264 22 1 0.000000 41.820000 1.440000 50.279999
265 23 5 1.000000 91.990005 13.780001 7.580000
266 23 6 -1.000000 89.970001 15.599999 9.230000
267 23 3 0.000000 86.669998 16.920000 9.580000
268 23 3 0.000000 85.520004 16.090000 6.900000
269 23 1 0.000000 83.339996 18.600000 11.000000
270 23 2 0.000000 82.370003 21.619999 10.380000
271 23 1 0.000000 79.410004 22.090000 11.650000
272 23 1 0.000000 76.599998 24.030001 12.150001
273 23 1 0.000000 83.170006 18.469999 5.510000
274 23 1 0.000000 79.870003 18.750000 6.710000
275 23 1 0.000000 77.979996 21.320000 6.790000
276 23 1 0.000000 74.860001 22.740000 7.490000
277 24 5 1.000000 32.669998 60.070000 87.449997
278 24 6 -1.000000 32.020000 62.309998 85.299995
279 24 3 0.000000 31.700001 63.209999 81.839996
280 24 3 0.000000 32.889999 60.720001 80.579994
281 24 1 0.000000 30.790001 65.059998 78.440002
282 24 2 0.000000 32.850002 66.830002 76.669998
283 24 1 0.000000 31.410000 67.709999 73.889999
284 24 1 0.000000 31.480000 69.220001 70.779999
285 24 1 0.000000 34.760002 61.370003 77.550003
286 24 1 0.000000 33.169998 62.029999 74.479996
287 24 1 0.000000 34.180000 63.820000 72.040001
288 24 1 0.000000 33.709999 65.029999 68.800003
289 25 5 1.000000 68.300003 47.210003 90.540001
290 25 6 -1.000000 65.360001 46.380001 89.669998
291 25 3 0.000000 62.709999 46.650002 87.290001
292 25 3 0.000000 63.790001 48.930000 85.610001
293 25 1 0.000000 59.400002 46.049999 85.159996
294 25 2 0.000000 56.639999 47.719997 85.480003
295 25 1 0.000000 54.549999 46.820000 83.149994
296 25 1 0.000000 51.539997 47.140003 81.500000
297 25 1 0.000000 61.240002 51.149998 84.329994
298 25 1 0.000000 59.180000 50.279999 81.610001
299 25 1 0.000000 56.180000 51.170002 80.989998
300 25 1 0.000000 53.410000 51.149998 78.870003
301 26 5 1.000000 77.880005 90.639999 71.120003
302 26 6 -1.000000 80.400002 89.020004 70.050003
303 26 3 0.000000 82.139999 87.610001 67.259995
304 26 3 0.000000 80.000000 87.939995 65.139999
305 26 1 0.000000 84.910004 86.029999 64.879997
306 26 2 0.000000 85.110001 82.900002 64.070000
307 26 1 0.000000 87.449997 82.500000 61.840000
308 26 1 0.000000 89.230003 80.530006 59.640003
309 26 1 0.000000 79.930000 85.260002 62.700001
310 26 1 0.000000 82.309998 85.019997 60.120003
311 26 1 0.000000 83.430008 82.410004 58.670002
312 26 1 0.000000 85.430000 80.970001 56.189999
313 27 5 1.000000 14.090000 82.550003 2.120000
314 27 6 -1.000000 12.410001 83.149994 4.750000
315 27 3 0.000000 9.210000 83.330002 6.330000
316 27 3 0.000000 7.440000 83.059998 3.880000
317 27 1 0.000000 6.260000 83.509995 9.010000
318 27 2 0.000000 4.620000 86.190002 9.790000
319 27 1 0.000000 2.180000 85.410004 11.799999
320 27 1 0.000000 -0.630000 86.239998 13.639999
321 27 1 0.000000 4.380000 84.989998 4.070000
322 27 1 0.000000 1.630000 83.970001 6.030000
323 27 1 0.000000 -0.560000 85.760002 7.490000
324 27 1 0.000000 -3.500000 85.979996 9.370000
325 28 5 1.000000 29.540001 40.630001 52.439999
326 28 6 -1.000000 26.750000 41.409996 51.139999
327 28 3 0.000000 23.410000 42.620003 51.599998
328 28 3 0.000000 23.280001 42.529999 54.619999
329 28 1 0.000000 19.770000 44.139999 51.020004
330 28 2 0.000000 17.029999 42.410004 50.930000
331 28 1 0.000000 14.490000 44.439999 50.750000
332 28 1 0.000000 11.090000 45.040001 50.689999
333 28 1 0.000000 20.000000 41.660000 55.919998
334 28 1 0.000000 17.340000 43.959999 55.980000
335 28 1 0.000000 14.210000 43.419998 55.760002
336 28 1 0.000000 10.930000 44.619999 55.820000
337 29 5 1.000000 29.990002 31.500000 25.120001
338 29 6 -1.000000 31.359999 29.719999 22.869999
339 29 3 0.000000 34.160000 29.189999 20.699999
340 29 3 0.000000 35.590000 31.820000 21.099998
341 29 1 0.000000 36.830002 27.570000 18.230000
342 29 2 0.000000 36.950001 28.090000 15.030001
343 29 1 0.000000 39.619999 26.670000 13.810000
344 29 1 0.000000 41.760002 25.990000 11.190000
345 29 1 0.000000 37.260002 33.049999 18.129999
346 29 1 0.000000 40.300003 31.689999 16.990000
347 29 1 0.000000 41.409996 31.470001 14.010000
348 29 1 0.000000 43.979996 30.590000 11.809999
349 30 5 1.000000 81.409996 79.739998 47.830002
350 30 6 -1.000000 83.879997 80.389999 45.939999
351 30 3 0.000000 85.750000 79.570000 43.000000
352 30 3 0.000000 84.459999 76.910004 42.320000
353 30 1 0.000000 88.229996 79.690002 39.879997
354 30 2 0.000000 91.120003 78.220001 39.750000
355 30 1 0.000000 92.349998 78.540001 36.750000
356 30 1 0.000000 94.779999 77.870003 34.380001
357 30 1 0.000000 86.759995 74.489998 40.900002
358 30 1 0.000000 87.849998 74.690002 37.560001
359 30 1 0.000000 90.610001 73.739998 36.290001
360 30 1 0.000000 92.639999 73.279999 33.480000
361 31 5 1.000000 36.209999 51.490002 64.699997
362 31 6 -1.000000 38.369999 53.500000 65.889999
363 31 3 0.000000 40.430000 56.380001 65.409996
364 31 3 0.000000 40.050003 56.760002 62.420002
365 31 1 0.000000 42.779999 59.549999 65.970001
366 31 2 0.000000 45.980000 59.610001 65.479996
367 31 1 0.000000 47.080002 62.649998 65.860001
368 31 1 0.000000 49.610001 64.989998 65.750000
369 31 1 0.000000 43.000000 57.980000 60.709999
370 31 1 0.000000 44.010002 61.350002 60.900002
371 31 1 0.000000 46.939999 62.579998 60.739998
372 31 1 0.000000 49.039997 65.380005 60.660000
373 32 5 1.000000 29.440001 66.389999 10.210000
374 32 6 -1.000000 29.650000 63.850002 12.100000
375 32 3 0.000000 29.289999 62.470001 15.390000
376 32 3 0.000000 28.910000 65.040001 16.950001
377 32 1 0.000000 28.900002 59.980003 18.469999
378 32 2 0.000000 31.270000 59.180000 20.529999
379 32 1 0.000000 30.039999 57.369999 22.939999
380 32 1 0.000000 30.369999 55.680000 25.930000
381 32 1 0.000000 30.380001 64.959999 20.270000
382 32 1 0.000000 28.880001 63.230000 22.939999
383 32 1 0.000000 30.250000 61.830002 25.450001
384 32 1 0.000000 29.960001 60.130001 28.490000
385 33 5 1.000000 55.540001 34.230000 24.639999
386 33 6 -1.000000 57.719997 36.410000 23.840000
387 33 3 0.000000 60.989998 37.110001 22.560001
388 33 3 0.000000 62.129997 34.299999 22.579998
389 33 1 0.000000 64.180000 38.900002 20.990000
390 33 2 0.000000 66.779999 39.869999 22.670000
391 33 1 0.000000 69.059998 40.930000 20.599998
392 33 1 0.000000 72.230003 42.129997 19.950001
393 33 1 0.000000 65.669998 34.170002 23.360001
394 33 1 0.000000 68.139999 35.040001 21.010000
395 33 1 0.000000 71.029999 36.290001 21.500000
396 33 1 0.000000 74.110001 37.349998 20.240000
397 34 5 1.000000 70.849998 31.490000 31.180000
398 34 6 -1.000000 72.849998 29.890001 29.300001
399 34 3 0.000000 75.729996 29.939999 27.180000
400 34 3 0.000000 76.110001 32.939999 26.949999
401 34 1 0.000000 78.889999 28.910000 24.980000
402 34 2 0.000000 78.940002 28.750000 21.750000
403 34 1 0.000000 81.979996 28.150002 20.739998
404 34 1 0.000000 84.320000 27.750000 18.230000
405 34 1 0.000000 77.340004 34.020000 23.719999
406 34 1 0.000000 80.699997 33.629997 22.760000
407 34 1 0.000000 81.930000 33.200001 19.850000
408 34 1 0.000000 84.720001 32.850002 17.780001
409 35 5 1.000000 58.080002 63.649998 75.570000
410 35 6 -1.000000 58.660004 61.259998 77.580002
411 35 3 0.000000 59.470001 60.219997 80.900002
412 35 3 0.000000 60.149998 62.910000 82.110001
413 35 1 0.000000 60.009998 58.080002 84.230003
414 35 2 0.000000 62.859997 56.989998 85.290001
415 35 1 0.000000 62.470001 55.630001 88.229996
416 35 1 0.000000 63.740002 54.130001 91.070007
417 35 1 0.000000 62.810001 62.789997 84.570000
418 35 1 0.000000 62.290001 61.590000 87.830002
419 35 1 0.000000 64.339996 60.139999 89.790001
420 35 1 0.000000 65.059998 58.750000 92.910004
421 36 5 1.000000 6.300000 17.560001 43.239998
422 36 6 -1.000000 8.080000 18.459999 45.720001
423 36 3 0.000000 11.219999 19.690001 46.910000
424 36 3 0.000000 12.849999 19.400002 44.380001
425 36 1 0.000000 14.099999 21.300001 49.139999
426 36 2 0.000000 16.390001 19.620001 50.700001
427 36 1 0.000000 18.539999 21.689999 52.010002
428 36 1 0.000000 21.470001 22.340000 53.730003
429 36 1 0.000000 16.310001 18.500000 44.959999
430 36 1 0.000000 18.689999 20.830000 46.100002
431 36 1 0.000000 21.280001 20.350000 47.889999
432 36 1 0.000000 24.170000 21.600000 49.410000
433 37 5 1.000000 70.660004 10.520000 4.240000
434 37 6 -1.000000 72.059998 13.160000 3.180000
435 37 3 0.000000 74.080002 16.030001 3.890000
436 37 3 0.000000 74.139999 15.850000 6.910000
437 37 1 0.000000 76.430000 19.230000 3.580000
438 37 2 0.000000 75.440002 22.299999 3.870000
439 37 1 0.000000 78.029999 24.279999 3.810000
440 37 1 0.000000 79.450005 27.420002 4.060000
441 37 1 0.000000 74.159996 19.070000 8.580000
442 37 1 0.000000 77.050003 21.059999 8.750000
443 37 1 0.000000 77.290001 24.240000 8.880000
444 37 1 0.000000 79.279999 27.100000 9.190001
445 38 5 1.000000 79.860001 20.459999 53.090000
446 38 6 -1.000000 79.400002 17.369999 52.560001
447 38 3 0.000000 78.669998 14.130000 53.909996
448 38 3 0.000000 78.959999 14.750000 56.860001
449 38 1 0.000000 77.629997 10.310000 54.340000
450 38 2 0.000000 79.709999 7.850000 54.750000
451 38 1 0.000000 78.040001 5.120000 55.359997
452 38 1 0.000000 77.909996 1.770000 56.160004
453 38 1 0.000000 80.340004 12.030000 58.810001
454 38 1 0.000000 78.419998 9.210000 59.699997
455 38 1 0.000000 79.369995 6.210000 60.180000
456 38 1 0.000000 78.629997 2.920000 61.119999
457 39 5 1.000000 19.309999 37.509998 77.629997
458 39 6 -1.000000 19.760000 34.439999 78.309998
459 39 3 0.000000 21.520000 31.400002 77.620003
460 39 3 0.000000 22.920000 32.219997 75.050003
461 39 1 0.000000 23.080002 27.740000 77.839996
462 39 2 0.000000 21.940001 25.139999 76.290001
463 39 1 0.000000 23.970001 22.630001 76.750000
464 39 1 0.000000 24.949999 19.370001 76.149994
465 39 1 0.000000 23.260000 29.530001 72.650002
466 39 1 0.000000 25.669998 26.980000 73.020004
467 39 1 0.000000 25.539999 23.950001 72.059998
468 39 1 0.000000 27.090000 20.830000 71.709999
469 40 5 1.000000 38.860001 65.560005 29.080000
470 40 6 -1.000000 36.799999 67.949997 28.740002
471 40 3 0.000000 34.110001 69.400002 26.879999
472 40 3 0.000000 34.139999 67.570000 24.460001
473 40 1 0.000000 31.000000 71.610001 25.739998
474 40 2 0.000000 31.150000 74.139999 23.719999
475 40 1 0.000000 28.129999 75.169998 23.050001
476 40 1 0.000000 25.940001 77.239998 21.359999
477 40 1 0.000000 33.299999 69.229996 21.350000
478 40 1 0.000000 29.990002 70.080002 20.520000
479 40 1 0.000000 28.920000 72.510002 18.750000
480 40 1 0.000000 26.259998 74.190002 17.230000
481 41 5 1.000000 4.810000 36.770000 -5.080000
482 41 6 -1.000000 4.420000 34.760002 -2.640000
483 41 3 0.000000 5.910000 32.509998 -0.290000
484 41 3 0.000000 8.690001 32.340000 -1.480000
485 41 1 0.000000 6.600000 30.150002 2.840000
486 41 2 0.000000 6.480000 26.910000 2.790000
487 41 1 0.000000 7.490000 25.750000 5.670000
488 41 1 0.000000 8.300000 23.129999 7.760000
489 41 1 0.000000 10.230000 29.080000 -1.130000
490 41 1 0.000000 11.590000 27.959999 1.920000
491 41 1 0.000000 11.820001 24.990002 3.040000
492 41 1 0.000000 12.920000 22.780001 5.510000
493 42 5 1.000000 61.799999 25.020000 84.949997
494 42 6 -1.000000 63.260002 22.420002 83.860001
495 42 3 0.000000 63.549999 19.950001 81.279999
496 42 3 0.000000 61.059998 20.629999 79.680000
497 42 1 0.000000 64.849998 17.029999 78.909996
498 42 2 0.000000 63.829998 13.960000 79.010002
499 42 1 0.000000 65.139999 12.300000 76.529999
500 42 1 0.000000 65.479996 9.420000 74.650002
501 42 1 0.000000 59.439999 17.740000 78.200005
502 42 1 0.000000 60.720001 16.139999 75.339996
503 42 1 0.000000 60.510002 13.080000 74.489998
504 42 1 0.000000 61.119999 10.549999 72.160004
505 43 5 1.000000 43.419998 64.879997 29.949999
506 43 6 -1.000000 44.029999 66.050003 27.060001
507 43 3 0.000000 45.310001 68.750000 25.079998
508 43 3 0.000000 45.619999 70.840004 27.260000
509 43 1 0.000000 46.739998 70.970001 22.100000
510 43 2 0.000000 45.029999 73.119995 20.400000
511 43 1 0.000000 47.020000 74.730003 18.380001
512 43 1 0.000000 47.620003 77.199997 16.030001
513 43 1 0.000000 44.939999 74.220001 26.140001
514 43 1 0.000000 47.239998 76.059998 24.200001
515 43 1 0.000000 46.669998 78.309998 22.030001
516 43 1 0.000000 47.889999 80.709999 19.789999
517 44 5 1.000000 41.889999 18.680000 12.830000
518 44 6 -1.000000 44.430000 17.650000 14.429999
519 44 3 0.000000 47.919998 16.820000 14.400001
520 44 3 0.000000 48.410000 16.920000 11.410000
521 44 1 0.000000 51.660000 15.990000 15.460000
522 44 2 0.000000 52.970001 13.030000 15.490000
523 44 1 0.000000 56.149998 13.260000 16.150000
524 44 1 0.000000 59.279999 11.840000 16.540001
525 44 1 0.000000 50.820000 14.470000 10.240001
526 44 1 0.000000 54.279999 14.889999 10.720000
527 44 1 0.000000 56.539997 12.660000 11.080000
528 44 1 0.000000 59.910004 11.830000 11.440001
529 45 5 1.000000 53.220001 19.900000 44.389999
530 45 6 -1.000000 53.150002 22.740000 42.970001
531 45 3 0.000000 53.680000 26.270000 43.209999
532 45 3 0.000000 54.050003 26.510000 46.209999
533 45 1 0.000000 54.260002 30.120001 42.369999
534 45 2 0.000000 51.989998 32.430000 42.560001
535 45 1 0.000000 53.369999 35.340000 42.029999
536 45 1 0.000000 53.200001 38.779999 41.860001
537 45 1 0.000000 52.719997 29.570000 47.610001
538 45 1 0.000000 54.380001 32.660000 47.270004
539 45 1 0.000000 53.139999 35.590000 47.140003
540 45 1 0.000000 53.600002 39.049999 46.980000
541 46 5 1.000000 61.409996 26.450001 2.260000
542 46 6 -1.000000 62.110001 23.789999 3.860000
543 46 3 0.000000 62.719997 20.260000 3.770000
544 46 3 0.000000 61.840000 19.690001 0.930000
545 46 1 0.000000 63.829998 16.549999 4.670000
546 46 2 0.000000 61.840000 14.200000 5.660000
547 46 1 0.000000 63.489998 11.390000 5.870000
548 46 1 0.000000 63.629997 7.990000 6.430000
549 46 1 0.000000 60.250000 16.460001 0.510000
550 46 1 0.000000 62.090000 13.459999 0.430000
551 46 1 0.000000 61.209999 10.540000 1.360000
552 46 1 0.000000 61.910000 7.130000 1.660000
553 47 5 1.000000 46.510002 5.130000 42.560001
554 47 6 -1.000000 46.040001 8.050000 43.699997
555 47 3 0.000000 44.419998 11.219999 43.349998
556 47 3 0.000000 43.290001 10.889999 40.560001
557 47 1 0.000000 42.900002 14.850000 44.029999
558 47 2 0.000000 44.239998 17.630001 43.060001
559 47 1 0.000000 42.210003 20.090000 43.730003
560 47 1 0.000000 41.350002 23.430000 43.590004
561 47 1 0.000000 43.239998 13.950000 38.619999
562 47 1 0.000000 40.849998 16.480000 39.170002
563 47 1 0.000000 41.119999 19.620001 38.750000
564 47 1 0.000000 39.669998 22.799999 38.770000
565 48 5 1.000000 80.439995 37.730000 58.870003
566 48 6 -1.000000 77.830002 37.070000 60.560001
567 48 3 0.000000 74.540001 35.650002 60.639999
568 48 3 0.000000 74.120003 35.239998 57.659996
569 48 1 0.000000 71.059998 34.100002 61.820000
570 48 2 0.000000 68.250000 35.700001 61.900002
571 48 1 0.000000 65.849998 33.629997 62.670002
572 48 1 0.000000 62.509998 32.910000 63.160000
573 48 1 0.000000 70.689995 35.739998 56.590000
574 48 1 0.000000 68.180000 33.349998 57.169998
575 48 1 0.000000 65.050003 33.790001 57.610001
576 48 1 0.000000 61.860001 32.459999 58.080002
577 49 5 1.000000 42.049999 11.050000 80.000000
578 49 6 -1.000000 38.989998 11.330000 80.810005
579 49 3 0.000000 35.560001 10.830000 79.930000
580 49 3 0.000000 35.899998 10.100000 77.010002
581 49 1 0.000000 31.600000 10.410000 80.039993
582 49 2 0.000000 29.460001 12.670000 79.130005
583 49 1 0.000000 26.459999 11.420000 79.220001
584 49 1 0.000000 23.059999 11.660000 78.680000
585 49 1 0.000000 33.230000 11.300000 74.870003
586 49 1 0.000000 30.079998 9.740000 74.770004
587 49 1 0.000000 27.219999 11.030001 74.169998
588 49 1 0.000000 23.780001 10.640000 73.690002
589 50 5 1.000000 41.049999 -0.210000 85.459991
590 50 6 -1.000000 42.379997 1.260000 87.939995
591 50 3 0.000000 44.430000 3.940000 89.139999
592 50 3 0.000000 45.500000 4.960000 86.490005
593 50 1 0.000000 46.230003 6.650000 91.429993
594 50 2 0.000000 49.279999 6.460000 92.489998
595 50 1 0.000000 50.070000 9.220000 94.029999
596 50 1 0.000000 52.360001 11.250000 95.639999
597 50 1 0.000000 48.909996 6.180000 86.660004
598 50 1 0.000000 49.699997 9.309999 88.059998
599 50 1 0.000000 52.360001 10.219999 89.550003
600 50 1 0.000000 54.250000 12.730000 91.090004
601 51 5 1.000000 34.910000 55.120003 82.460007
602 51 6 -1.000000 31.989998 56.339996 82.669998
603 51 3 0.000000 28.910000 57.140003 81.029999
604 51 3 0.000000 29.740000 56.639999 78.160004
605 51 1 0.000000 25.120001 58.090000 80.250000
606 51 2 0.000000 24.080000 61.020004 79.349998
607 51 1 0.000000 20.920000 60.860001 78.590004
608 51 1 0.000000 18.010000 62.299999 77.410004
609 51 1 0.000000 28.199999 58.889999 75.770004
610 51 1 0.000000 24.849998 58.520004 74.750000
611 51 1 0.000000 22.780001 60.760002 73.820000
612 51 1 0.000000 19.620001 61.620003 72.580002
613 52 5 1.000000 31.779999 57.389999 32.060001
614 52 6 -1.000000 33.369999 60.100002 31.630001
615 52 3 0.000000 33.469997 63.369999 30.160000
616 52 3 0.000000 31.070002 63.150002 28.330000
617 52 1 0.000000 34.389999 67.139999 29.270000
618 52 2 0.000000 36.139999 68.070000 26.709999
619 52 1 0.000000 36.150002 71.330002 26.540001
620 52 1 0.000000 36.989998 74.279999 24.949999
621 52 1 0.000000 31.450001 64.930000 25.190001
622 52 1 0.000000 31.160000 68.430000 24.980000