
644 atoms
50 bonds
31 angles
8 impropers

10 atom types
11 bond types
7 angle types
2 improper types

-0.43 5.6 xlo xhi
-0.41 5.59 ylo yhi
-0.4 5.62 zlo zhi

Masses

1 1 # Qd 
2 1 # P1 
3 1 # Nda 
4 0.625 # SC4 
5 0.625 # SNd 
6 0.625 # SC5 
7 1 # Qa 
8 1 # P5 
9 1 # C3 
10 1 # W 

Atoms

1 1 1 8.861242189860825 1.6723864031824853 2.530157423794365 2.864156759253857
2 1 2 0.0 1.6716835426280672 2.472522858332078 3.217414473904406
3 1 3 0.0 2.1019747740428434 2.6904096302016973 2.997559692482417
4 1 4 0.0 2.1070353700346534 3.01977008600203 2.6774769960004035
5 1 5 0.0 1.9324448083171917 3.2227562141179846 2.5484317982092355
6 1 6 0.0 2.257025812347481 2.9490623142275667 2.288513965185413
7 1 6 0.0 2.0966330338292654 3.176929705969923 2.1426001140882107
8 1 3 0.0 2.5388728946691494 2.4418781381594483 2.892130609319698
9 1 2 0.0 2.3838218563645106 2.154127027180668 3.1204197173947055
10 1 3 0.0 3.011898047792547 2.2944179938425258 2.9598863667656055
11 1 4 0.0 3.308083485424345 2.580903955823353 3.047181647624337
12 1 5 0.0 3.595412880070474 2.5058384486114975 3.040012469969272
13 1 6 0.0 3.4323492314454693 2.9389411222439463 2.858533874818512
14 1 6 0.0 3.7410455869459094 2.8811659846707762 2.864156759253857
15 1 3 0.0 3.3225624128453584 2.2417034522611665 2.5432306301065415
16 1 7 -8.861242189860825 3.073328060248691 1.7927161300988683 2.3048203300479133
17 1 3 0.0 3.7555245143669227 2.280782499086814 2.384805861140696
18 1 8 0.0 3.821874550703994 1.8177379658361537 2.3838218563645106
19 1 3 0.0 3.7532753605927853 2.7713791660706653 2.4077191152147273
20 1 3 0.0 3.2879816735679865 2.732440691355901 2.4252906290751803
21 1 9 0.0 3.2979622934407233 2.909420978958385 1.9979514119889605
22 1 1 8.861242189860825 3.3863821511865244 3.284467370795896 1.746046189285505
23 1 3 0.0 2.8083496312330585 2.7966821460297178 2.3259061466804574
24 1 4 0.0 2.771660310292432 3.034951873977462 2.7244280810355344
25 1 5 0.0 2.9265707764861872 3.237656857871649 2.875964816568082
26 1 6 0.0 2.690690774423464 2.8631727544776724 3.1024264872016016
27 1 6 0.0 2.845460668506335 3.0745932092466437 3.276033044142878
28 1 3 0.0 2.4065945383276577 2.4826440503156997 2.37215437116117
29 1 2 0.0 2.506541309165916 2.2050141313205405 2.144568123640582
30 1 3 0.0 1.9349751063130964 2.3339187570008244 2.2487320578053476
31 1 4 0.0 1.6508788702172907 2.6402253866162435 2.245639471365908
32 1 5 0.0 1.3586294516902346 2.5887759940328356 2.234955990938752
33 1 6 0.0 1.5544464021511242 2.908436974182199 2.56178614874318
34 1 6 0.0 1.2433603207656623 2.865140764030042 2.5565849806404857
35 1 7 -8.861242189860825 1.7027499791333482 2.100850197155774 2.616749844098677
36 1 9 0.0 2.0867929860674117 1.868203353643375 2.611689248106867
37 1 1 8.861242189860825 2.1326194942154735 1.479943183382803 2.455794777136927
38 2 10 0.0 -0.32162898970173376 4.638739087048738 4.261724685658856
39 3 10 0.0 0.2069221472206959 3.0826058195670107 3.5911957167439654
40 4 10 0.0 4.009397746622749 2.703061120181223 0.45643764403913006
41 5 10 0.0 4.192141490771462 4.228268523268554 3.305834331650207
42 6 10 0.0 1.2654301421743914 4.2156170332890275 -0.17191969161067322
43 7 10 0.0 0.7003302564222192 1.4041748156165292 1.4404424202245043
44 8 10 0.0 2.093399875278942 2.5498375193180722 0.6448042726231874
45 9 10 0.0 1.636540514907161 4.0848849701672565 3.9552774839325537
46 10 10 0.0 -0.2625887031306113 0.6563311857156447 3.9032658029056124
47 11 10 0.0 0.8085707818026104 -0.35578801264645454 3.624933023356035
48 12 10 0.0 3.1898623401712163 0.18963177758201002 2.0603654292212905
49 13 10 0.0 2.696454230969693 1.414014863378383 0.05018424358545412
50 14 10 0.0 3.4977152630063544 0.6183767157770659 4.395268190998299
51 15 10 0.0 -0.20495413766832507 0.32598672513912613 3.1652622207665817
52 16 10 0.0 -0.06578774789353645 4.007570309181262 4.600503472888391
53 17 10 0.0 2.0737197797552347 3.15008043279115 0.006606889211530392
54 18 10 0.0 -0.1304509189000039 1.4393178433374354 2.3864927264713
55 19 10 0.0 1.1248580312907666 1.2860942424742843 4.12536973810174
56 20 10 0.0 4.581526237919102 1.0878875661283731 2.0153823537385303
57 21 10 0.0 4.249776056233748 2.5540546826445802 3.2228967862288678
58 22 10 0.0 1.8712959400828146 1.6164387030508027 1.8551301473311979
59 23 10 0.0 2.6388196655074063 3.4986992677825404 2.373841236491774
60 24 10 0.0 0.5302380022530332 2.703061120181223 2.699968533741783
61 25 10 0.0 -0.3708292285110025 2.039560756810513 2.0969141780510325
62 26 10 0.0 1.0854978402433513 2.0002005657630986 3.7725337397838414
63 27 10 0.0 4.277890478410473 1.6951590851456328 4.129586901428248
64 28 10 0.0 0.9266513549448554 3.7250203663051766 1.9436905771878814
65 29 10 0.0 2.50246471795029 3.287841101457103 3.5377783146081874
66 30 10 0.0 1.4060022530580163 1.3760603934398041 2.4483444552600946
67 31 10 0.0 3.2179767623479414 3.564768159897844 4.544274628534942
68 32 10 0.0 1.923307621109756 2.608877805889194 4.558331839623304
69 33 10 0.0 1.896598920041867 2.2096530109796997 3.8245454208107823
70 34 10 0.0 -0.33990336411660493 1.353568855698424 4.558331839623304
71 35 10 0.0 3.641098816107652 3.511350757762066 3.9946376749799684
72 36 10 0.0 0.2406594538327659 0.11231711659601634 1.1803840150897982
73 37 10 0.0 0.9814744781894692 3.286435380348266 2.5846994028172112
74 38 10 0.0 3.6186072783662717 0.732240125592802 2.383681284253627
75 39 10 0.0 4.019237794384603 0.6661712334774984 -0.2942174280794269
76 40 10 0.0 4.67289810999346 1.792153841655334 2.947375448896963
77 41 10 0.0 4.30881634280487 3.441064702320254 0.40442596301218886
78 42 10 0.0 0.27299103933599955 4.545961493865545 0.05861857023847162
79 43 10 0.0 0.8254394351086454 4.610624664872013 1.008886039811776
80 44 10 0.0 0.540078050014887 0.0476539455895489 3.0134443410122667
81 45 10 0.0 4.227284518492368 1.4786780343848502 3.400017645942235
82 46 10 0.0 3.3908804587347996 2.071892342313747 1.2338014172255758
83 47 10 0.0 3.3430859410343676 1.6333073563568377 -0.13396522167209451
84 48 10 0.0 1.9570449277218256 0.8938980531089707 1.748295343059643
85 49 10 0.0 2.8004775930235746 3.827638007250222 3.145582125242874
86 50 10 0.0 4.024860678819948 2.1281211866671974 0.9273542154992737
87 51 10 0.0 2.481378901317747 0.24164345860895123 0.9498457532406537
88 52 10 0.0 0.5934954521506643 4.028656125813805 0.5042321617395625
89 53 10 0.0 -0.2907031253073362 0.5129476326143473 1.3462591059324756
90 54 10 0.0 3.6256358839104537 1.3662203456779503 2.012570911520858
91 55 10 0.0 0.052292825248708506 3.6392713786661655 1.8930846172697766
92 56 10 0.0 1.9373648321981185 4.131273766758852 0.3046197642848152
93 57 10 0.0 -0.2907031253073362 3.827638007250222 2.593133729470228
94 58 10 0.0 0.8212222717821367 3.2259893726683075 3.267879861711628
95 59 10 0.0 1.3455562453780576 2.326327863013108 1.3265790104087682
96 60 10 0.0 1.3764821097724549 0.08420269441929135 2.863032182366788
97 61 10 0.0 4.509834461368454 -0.2503589294837359 1.8748102428549054
98 62 10 0.0 0.6005240576948456 2.381150986257722 -0.27875449588222817
99 63 10 0.0 0.11555027514633967 1.0218186740130695 -0.02713041740053955
100 64 10 0.0 0.20270498389418712 3.7714091628967723 1.089012143015442
101 65 10 0.0 1.7925755579879847 3.0446513496284315 1.437630978006832
102 66 10 0.0 3.6649960749578687 4.2521657821187695 3.847036958552162
103 67 10 0.0 2.155251604067737 0.9374754074828945 0.59138687048741
104 68 10 0.0 3.645315979434161 1.290311405800793 3.92294589842932
105 69 10 0.0 4.647595130034407 3.618185562033621 1.2998703093408794
106 70 10 0.0 -0.4228409095379437 1.991766239110081 0.8640967656016423
107 71 10 0.0 1.138915242379129 2.5751404992771247 3.0752960698010616
108 72 10 0.0 2.831403457417973 1.5405297631736452 0.795216431268666
109 73 10 0.0 0.3292198836894496 1.414014863378383 3.0134443410122667
110 74 10 0.0 0.30813406705690577 1.2397054458826882 4.3095192033592875
111 75 10 0.0 0.15350474508491846 -0.2826905149869696 1.721586641991754
112 76 10 0.0 2.6388196655074063 0.2050947097792088 2.5101961840488896
113 77 10 0.0 2.144005835197047 0.4651531149139148 4.145049833625448
114 78 10 0.0 2.643036828833915 0.674605560130516 0.17810486448955273
115 79 10 0.0 4.306004900587198 4.03849617357566 4.049460798224582
116 80 10 0.0 2.8538949951593526 -0.06480374311735106 4.104283921469196
117 81 10 0.0 4.286324805063491 3.1697605283148578 4.275781896747219
118 82 10 0.0 3.4850637730268286 0.5930737358180135 3.707870568777374
119 83 10 0.0 3.203919551259579 0.505919027070166 1.2759730504906632
120 84 10 0.0 3.7563679470322247 2.1000067644904727 4.655326596133006
121 85 10 0.0 0.5794382410623018 4.315423232016402 1.8242042829368006
122 86 10 0.0 1.5044027306765537 1.1061619405432443 0.39880307857684383
123 87 10 0.0 0.8985369327681303 0.09966562661649006 4.14364411251661
124 88 10 0.0 3.783076648100113 0.7800346432932345 0.8837768611253498
125 89 10 0.0 4.298976295043016 1.4575922177523064 0.806462200139356
126 90 10 0.0 1.1262637523996026 4.574075916042271 4.2799990600737265
127 91 10 0.0 1.0222403903457202 -0.29534200496649593 0.39318019414149885
128 92 10 0.0 4.284919083954654 0.45531306715206105 1.8481015417870166
129 93 10 0.0 4.495777250280091 3.6167798409247847 -0.33779478245335054
130 94 10 0.0 0.14788186064957345 2.4964201171822946 2.054742544785945
131 95 10 0.0 4.436736963708969 3.788277816202807 1.9844564893441325
132 96 10 0.0 4.491560086953584 -0.15617561519170722 3.038747320971319
133 97 10 0.0 2.3056637627132157 1.5475583687178265 3.8175168152666012
134 98 10 0.0 2.4363958258349867 3.429818933449564 0.5885754282697373
135 99 10 0.0 2.998684269369486 2.437379830611172 4.440251266481059
136 100 10 0.0 2.5404191878888693 -0.40639397256455956 2.0631768714389627
137 101 10 0.0 0.5892782888241556 0.8629721887145732 2.1517373012956464
138 102 10 0.0 -0.037673325716811444 2.5498375193180722 3.239765439534903
139 103 10 0.0 2.575562215609776 4.226862802159717 1.420762324700797
140 104 10 0.0 4.2539932195602566 0.8489149776262107 2.6465511316060057
141 105 10 0.0 2.337995348216449 4.148142420064887 3.724739222083409
142 106 10 0.0 4.225878797383532 2.825358856649977 -0.20425127711390695
143 107 10 0.0 2.0259252620548023 2.098601043381636 1.2872188193613532
144 108 10 0.0 4.629320755619536 0.005482312324461391 3.7345792698452627
145 109 10 0.0 2.332372463781104 1.0190072317953969 2.383681284253627
146 110 10 0.0 3.530046848509589 1.437912122228599 0.7502333557859063
147 111 10 0.0 3.9334888067455918 1.0625845861693208 0.24698519882252895
148 112 10 0.0 3.6649960749578687 3.930255648195269 0.7938107101598298
149 113 10 0.0 3.285451375572081 2.0775152267490924 0.47611773956283754
150 114 10 0.0 3.7268478037466632 2.07470378453142 1.9563420671674077
151 115 10 0.0 0.03682989305150972 0.6900684923277146 2.552367817313977
152 116 10 0.0 4.435331242600133 4.443343852920499 2.5144133473753985
153 117 10 0.0 1.5254885473090973 3.661762916407545 1.6737921242913216
154 118 10 0.0 2.9410497039071997 4.4110122674172665 3.534966872390515
155 119 10 0.0 2.9326153772541828 0.6577369068244809 3.2032166907051605
156 120 10 0.0 1.8178785379470372 4.464429669553043 3.2889656783441716
157 121 10 0.0 4.2033872596421515 0.1826031720378288 1.1325894973893658
158 122 10 0.0 3.909591547895375 2.036749314592841 2.961432659985326
159 123 10 0.0 -0.33146903746358747 1.0822646816930281 3.014850062121103
160 124 10 0.0 3.688893333808084 0.7940918543815971 1.6344319332439068
161 125 10 0.0 4.266644709539784 1.0063557418158706 4.132398343645921
162 126 10 0.0 2.699265673187365 3.3946759057286577 1.6274033276997255
163 127 10 0.0 1.6534091682131962 4.225457081050881 1.0833892585800973
164 128 10 0.0 0.4093459868931157 0.2613235541326587 0.040344195823600396
165 129 10 0.0 1.9612620910483345 -0.2250559495246834 2.5846994028172112
166 130 10 0.0 2.0399824731431644 2.888616306547608 3.8667170540758695
167 131 10 0.0 1.801009884641002 0.5804222458384872 1.0412176253150096
168 132 10 0.0 3.707167708222956 0.013916638977478893 1.6428662598969244
169 133 10 0.0 3.313565797748806 4.627493318178049 2.103942783595214
170 134 10 0.0 2.4870017857530917 4.132679487867688 2.581887960599538
171 135 10 0.0 4.126072598656158 3.795306421746989 2.704185697068292
172 136 10 0.0 0.8844797216797678 0.2852208129828749 0.9737430120908699
173 137 10 0.0 1.6182661404922898 3.514162199979739 2.3232352765736684
174 138 10 0.0 0.8915083272239491 0.6057252257975397 -0.3968350690244731
175 139 10 0.0 2.0174909354017845 1.4618093810788153 2.9684612655295064
176 140 10 0.0 3.2095424356949236 -0.13227835634149102 2.7857175213807945
177 141 10 0.0 -0.4172180251025987 2.4584656472437154 2.624059593864626
178 142 10 0.0 1.9781307443543696 2.202624405435518 0.0347213113882554
179 143 10 0.0 0.9491428926862354 -0.166015662953561 -0.2885945436440819
180 144 10 0.0 1.986565071007387 1.353568855698424 1.1888183417428158
181 145 10 0.0 3.3501145465785487 -0.08588955974989478 3.5771385056556024
182 146 10 0.0 1.365236340901765 2.742421311228638 3.7303621065187538
183 147 10 0.0 2.4954361124061095 2.435974109502336 4.035403587136219
184 148 10 0.0 3.3627660365580745 2.478145742767423 3.8849914284907414
185 149 10 0.0 2.3562697226313207 -0.13649551966799972 4.594880588453047
186 150 10 0.0 1.262618699956719 0.7294286833751296 2.3358867665531946
187 151 10 0.0 0.4557347834847119 0.6675769545863347 1.4896426590337732
188 152 10 0.0 0.15491046619375468 4.479892601750242 1.0341890197708286
189 153 10 0.0 2.027330983163638 3.5380594588299545 4.021346376047857
190 154 10 0.0 0.6708101131366581 2.8141130877792864 0.308836927611324
191 155 10 0.0 3.4260234864557058 1.6670446629689077 2.586105123926047
192 156 10 0.0 2.969164126083925 3.1402403850292964 -0.13255950056325821
193 157 10 0.0 2.5080876023856353 0.3583183106423599 1.7342381319712805
194 158 10 0.0 4.5871491223544485 0.7491087788988372 0.7052502803031463
195 159 10 0.0 -0.34130908522544123 4.388520729675886 3.5602698523495673
196 160 10 0.0 0.24487661715927456 3.3004925914366288 2.902392373414203
197 161 10 0.0 -0.3638006229668212 4.489732649512096 0.41707745299171506
198 162 10 0.0 2.3056637627132157 0.652114022389136 2.95580977554998
199 163 10 0.0 1.410219416384525 3.4958878255648673 -0.06789632955679077
200 164 10 0.0 4.088118128717579 4.032873289140315 0.1935677966867515
201 165 10 0.0 2.647253992160424 2.1393669555378874 0.21324789221045895
202 166 10 0.0 1.0208346692368842 1.0021385784893617 0.9400057054787998
203 167 10 0.0 2.190394631788643 0.8756236786940996 -0.3926179056979643
204 168 10 0.0 3.011335759349012 3.075577214022829 4.074763778183635
205 169 10 0.0 3.507555310768208 0.1319972121197238 0.7249303758268536
206 170 10 0.0 -0.2457200498245763 -0.08167239642338606 -0.051027676250755834
207 171 10 0.0 1.5620372961388398 3.1781948549678756 3.1680736629842543
208 172 10 0.0 1.2794873532627538 3.06011428182563 1.89167889616094
209 173 10 0.0 0.9168113071830016 2.9926396686014907 -0.36028632019473056
210 174 10 0.0 -0.15013101442371138 3.331418455831026 0.7193074913915087
211 175 10 0.0 0.5583524244297582 2.0240978246133148 4.152078439169628
212 176 10 0.0 1.5479800850504775 -0.00014057211088360942 4.413542565413171
213 177 10 0.0 2.5446363512153773 0.1994718253438638 3.508258171322626
214 178 10 0.0 1.4130308586021973 -0.126655471906146 1.0918235852331148
215 179 10 0.0 2.9016895128597855 -0.01841494652575483 0.3959916363591714
216 180 10 0.0 0.012932634201293501 -0.11400398192661979 2.612813824993936
217 181 10 0.0 0.08040724742543345 1.2397054458826882 1.7272095264270992
218 182 10 0.0 3.8603913090861073 -0.014197783199246111 2.297932296614616
219 183 10 0.0 0.23644229050625712 0.6858513290012059 0.630747061534825
220 184 10 0.0 3.8505512613242536 0.24726634304429623 2.902392373414203
221 185 10 0.0 4.407216820423408 1.9383488369743036 -0.3518519935417131
222 186 10 0.0 0.6005240576948456 0.19244321979968246 2.2051547034314236
223 187 10 0.0 2.166497372938427 0.996515694054017 3.526532545737498
224 188 10 0.0 0.6679986709189855 2.5132887704883293 3.5813556689821113
225 189 10 0.0 2.576967936718612 1.6670446629689077 2.427258638627551
226 190 10 0.0 2.390007029243391 4.589538848239469 0.031909869170582895
227 191 10 0.0 -0.21619990653901505 2.49079723274695 -0.3940236268068006
228 192 10 0.0 0.8170051084556278 3.0685486084786477 4.000260559415313
229 193 10 0.0 1.5367343161797875 2.045183641245859 3.19197092183447
230 194 10 0.0 4.0220492366022755 -0.2616046983544259 3.5602698523495673
231 195 10 0.0 4.581526237919102 2.001606286871935 3.5476183623700415
232 196 10 0.0 4.564657584613068 2.282750508639184 0.2947797165229614
233 197 10 0.0 2.966352683866252 2.749449916772819 0.4339461062977501
234 198 10 0.0 3.6326644894546343 4.576887358259944 0.0052011681026941725
235 199 10 0.0 2.4757560168824018 1.7513879294990826 4.421976892066189
236 200 10 0.0 0.12820176512586595 3.110720241743735 4.478205736419638
237 201 10 0.0 4.63494364005488 0.18963177758201002 4.4107311231954975
238 202 10 0.0 4.238530287363058 1.4941409665820489 2.472241714110311
239 203 10 0.0 1.8600501712121247 4.48832692840326 4.5484917918614505
240 204 10 0.0 1.6562206104308685 -0.2503589294837359 -0.05243339735959206
241 205 10 0.0 3.819625396929855 3.4031102323816755 -0.13255950056325821
242 206 10 0.0 0.6834616031161842 0.7224000778309483 3.924351619538156
243 207 10 0.0 1.2935445643511163 3.5254079688504287 3.7303621065187538
244 208 10 0.0 4.282107641736982 0.7013142611984046 3.4464064425338314
245 209 10 0.0 3.1729936868651816 4.439126689593991 0.5899811493785738
246 210 10 0.0 1.048949091413609 0.27116360189451244 3.449217884751504
247 211 10 0.0 1.7082322914578099 1.7738794672404625 4.513348764140544
248 212 10 0.0 1.009588900366194 3.4312246545583998 0.56889533274603
249 213 10 0.0 3.4766294463738108 2.7255526579226035 0.9400057054787998
250 214 10 0.0 0.33905993145130325 0.7940918543815971 3.363468897112493
251 215 10 0.0 2.2072632850946783 3.692688780801942 1.2042812739400146
252 216 10 0.0 4.6672752255581145 1.6684503840777438 1.4587167946393755
253 217 10 0.0 2.167903094047263 -0.2531703717014084 3.8751513807288873
254 218 10 0.0 3.2643655589395375 3.5493052277006454 2.5804822394907023
255 219 10 0.0 3.6902990549169212 4.032873289140315 2.1700116757105175
256 220 10 0.0 2.59243086891581 3.7545405095907376 -0.03978190738006583
257 221 10 0.0 -0.20495413766832507 3.602722629836422 3.9552774839325537
258 222 10 0.0 0.8394966461970078 0.7800346432932345 2.884117998999332
259 223 10 0.0 0.7973250129319205 -0.13649551966799972 1.6330262121350705
260 224 10 0.0 3.0759989303554796 1.0471216539721218 2.6057852194497544
261 225 10 0.0 1.3863221575343088 2.693221072419369 0.07548722354450663
262 226 10 0.0 4.194952932989134 2.611689248106867 2.1826631656900437
263 227 10 0.0 0.4374604090698407 3.6772258486047433 4.183004303564026
264 228 10 0.0 3.7929166958619667 4.635927644831066 1.0862007007977696
265 229 10 0.0 1.1206408679642577 0.4468787404990436 1.7117465942299006
266 230 10 0.0 0.7959192918230843 2.5456203559915633 1.8382614940251627
267 231 10 0.0 1.23590999888883 4.52909284055951 2.8925523256523493
268 232 10 0.0 4.141535530853357 4.664042067007791 4.343256509971358
269 233 10 0.0 -0.06438202678470016 1.832919753811585 -0.08757642508049827
270 234 10 0.0 4.3411479283081045 4.163605352262086 0.8922111877783674
271 235 10 0.0 4.112015387567796 0.4018956650162836 0.3566314453117564
272 236 10 0.0 1.4959684040235361 -0.27425618833395216 3.7345792698452627
273 237 10 0.0 3.8941286156981767 3.664574358625218 1.5669573200197668
274 238 10 0.0 3.9348945278544276 1.634713077465674 1.4334138146803233
275 239 10 0.0 1.2879216799157713 1.1750422748762206 1.737049574188953
276 240 10 0.0 1.6323233515806523 1.5433412053913178 3.598224322288146
277 241 10 0.0 1.2963560065687887 0.9908928096186718 3.56308129456724
278 242 10 0.0 1.2668358632832277 4.457401064008862 1.6175632799378719
279 243 10 0.0 0.3067283459480696 4.399766498546575 3.914511571776302
280 244 10 0.0 0.4641691101377295 3.5015107100002125 -0.119908010583732
281 245 10 0.0 4.002369141078568 3.16132620166184 1.0187260875736297
282 246 10 0.0 0.6342613643069156 1.4632151021876516 3.669916098838795
283 247 10 0.0 4.532325999109834 1.364814624569114 0.12890462568028407
284 248 10 0.0 1.3624248986840926 2.8506618366090297 0.7909992679421574
285 249 10 0.0 2.9073123972951302 1.9819261913482278 3.716304895430391
286 250 10 0.0 2.754088796431979 1.4589979388611427 3.0752960698010616
287 251 10 0.0 0.7298503997077804 1.9819261913482278 3.116061981957313
288 252 10 0.0 3.836494050235891 4.635927644831066 2.875683672346314
289 253 10 0.0 3.542698338489114 -0.0957296075117485 4.2729704545295455
290 254 10 0.0 0.2589338282476371 0.11512855881368884 3.692407636580175
291 255 10 0.0 0.7354732841431256 1.5531812531531715 2.3611897465122476
292 256 10 0.0 1.2541843733037015 1.2917171269096293 -0.27875449588222817
293 257 10 0.0 1.5507915272681498 0.5790165247296509 -0.14802243276045698
294 258 10 0.0 0.3348427681247946 1.7260849495400301 0.9498457532406537
295 259 10 0.0 0.012932634201293501 4.329480443104763 2.969866986638343
296 260 10 0.0 3.9419231333986096 1.8357311960292575 0.31024264872016016
297 261 10 0.0 4.075466638738054 0.3119295140507637 4.086009547054325
298 262 10 0.0 3.282639933354408 3.417167443470037 1.2225556483548858
299 263 10 0.0 -0.09390217007026139 1.904611530362234 4.282810502291399
300 264 10 0.0 4.075466638738054 -0.2545760928102446 0.4817406239981825
301 265 10 0.0 3.4007205064966537 3.2245836515594717 0.4972035561953813
302 266 10 0.0 1.8572387289944523 1.900394367035725 0.6166898504464625
303 267 10 0.0 3.52582968518308 0.21915192086757124 -0.053839118468428336
304 268 10 0.0 3.617201557257436 1.0724246339311743 3.019067225447612
305 269 10 0.0 0.8099765029114467 3.2259893726683075 1.4109222769389431
306 270 10 0.0 3.288262817789754 1.2860942424742843 1.3617220381296746
307 271 10 0.0 4.67289810999346 3.0994744728730454 3.0584274164950265
308 272 10 0.0 4.557628979068887 0.26975788078567625 2.441315849715913
309 273 10 0.0 -0.3075717786133712 4.247948618792261 1.5641458778020942
310 274 10 0.0 0.40794026578427944 3.10509735730839 0.9118912833020747
311 275 10 0.0 0.28845397153319835 -0.24473604504839092 4.500697274161018
312 276 10 0.0 1.8614558923209608 3.7657862784614275 4.644080827262315
313 277 10 0.0 4.328496438328578 2.3150820941424186 1.5374371767342057
314 278 10 0.0 3.420400602020361 2.563894730406434 -0.036970465162393336
315 279 10 0.0 2.429367220290806 4.701996536946369 3.072484627583389
316 280 10 0.0 3.63407021056347 2.9054849598536427 4.530217417446579
317 281 10 0.0 1.968290696592516 -0.3136163793813671 0.7066560014119825
318 282 10 0.0 2.970569847192761 0.9079552641973332 1.91417043390232
319 283 10 0.0 -0.2822687986543188 3.1388346639204605 2.3808698420359544
320 284 10 0.0 1.4790997507175012 0.2739750441121849 0.4704948551274925
321 285 10 0.0 1.2035784133855962 2.3600651696251784 4.4753942942019656
322 286 10 0.0 2.600865195568828 0.9276353597210407 1.2619158394023007
323 287 10 0.0 0.2940768559685434 3.760163394026083 3.4506236058603403
324 288 10 0.0 1.1248580312907666 3.736266135175866 4.466959967548949
325 289 10 0.0 0.9154055860741653 0.6394625324096097 0.26947673656390897
326 290 10 0.0 3.0478845081787553 0.8390749298643569 0.7263360969356898
327 291 10 0.0 2.9888442216076325 3.8023350272911696 3.8709342174023784
328 292 10 0.0 1.1403209634879652 1.8230797060497312 1.9015189439227937
329 293 10 0.0 0.6553471809394592 4.209994148853682 3.1174677030661493
330 294 10 0.0 4.514051624694963 4.374463518587523 -0.2548572370320119
331 295 10 0.0 0.10430450627564967 2.507665886052984 3.9566832050413896
332 296 10 0.0 0.7101703041840729 2.382556707366558 1.0468405097503548
333 297 10 0.0 1.2316928355623213 3.7981178639646607 3.0078214565769215
334 298 10 0.0 1.7630554147024233 0.16995168205830258 1.6597349132029593
335 299 10 0.0 -0.18949120547112633 2.9589023619894204 0.15561332674817271
336 300 10 0.0 1.9457991588511359 1.4843009188201954 -0.02713041740053955
337 301 10 0.0 0.04245277748685473 2.256041807571296 1.4052993925035981
338 302 10 0.0 1.8558330078856158 0.3470725417716699 3.4632750958398666
339 303 10 0.0 4.206198701859825 -0.061992300899678554 -0.153645317195802
340 304 10 0.0 4.336930764981596 2.392396755128412 4.202684399087733
341 305 10 0.0 2.4448301524880045 4.159388188935577 4.416354007630844
342 306 10 0.0 4.63494364005488 2.885804864329936 3.7444193176071163
343 307 10 0.0 3.8027567436238208 4.007570309181262 4.603314915106065
344 308 10 0.0 0.6244213165450618 4.648579134810592 2.463807387457293
345 309 10 0.0 4.643377966707898 2.711495446834241 0.8809654189076774
346 310 10 0.0 2.576967936718612 1.68110187405727 1.602100347740673
347 311 10 0.0 2.249434918359766 -0.2700390250074434 1.4474710257686856
348 312 10 0.0 0.9266513549448554 3.924632763759923 1.218338485028377
349 313 10 0.0 1.6281061882541437 0.7491087788988372 2.9403468433527817
350 314 10 0.0 1.206389855603269 -0.137901240776836 2.193908934560734
351 315 10 0.0 -0.11077082337629639 3.829043728359058 0.15280188453050028
352 316 10 0.0 2.4420187102703315 2.9350051031392037 1.1621096406749272
353 317 10 0.0 0.8605824628295516 4.052553384664022 3.8034596041782387
354 318 10 0.0 0.12539032290819346 2.3980196395637567 0.5646781694195211
355 319 10 0.0 -0.03626760460797522 0.34988398398934234 1.968993557146934
356 320 10 0.0 -0.317411826375225 0.09544846328998134 0.6715129736910763
357 321 10 0.0 3.427429207564542 1.7907481205464977 3.380337550418528
358 322 10 0.0 3.254525511177684 0.9276353597210407 -0.032753301835884555
359 323 10 0.0 3.9812833244460246 3.2780010536952493 2.2838750855262537
360 324 10 0.0 1.2724587477185725 4.104565065690964 0.5154779306102525
361 325 10 0.0 3.0745932092466437 -0.24895320837489965 -0.2857831014264094
362 326 10 0.0 -0.01799323019310394 4.333697606431272 2.1615773490575
363 327 10 0.0 3.070376045920135 1.1820708804204019 4.459931362004767
364 328 10 0.0 0.2350365693974209 0.5213819592673649 4.458525640895931
365 329 10 0.0 -0.1431024088795301 1.364814624569114 0.709467443629655
366 330 10 0.0 0.8282508773263179 1.3493516923719153 0.3228941386996864
367 331 10 0.0 3.3065371922046247 1.8090224949613687 4.282810502291399
368 332 10 0.0 0.9772573148629603 2.204030126544355 2.468024550783802
369 333 10 0.0 3.049290229287591 -0.20537585400097594 1.2309899750079034
370 334 10 0.0 1.827718585708891 4.617653270416195 1.9380676927525367
371 335 10 0.0 3.5342640118360977 3.8613753138622924 3.2552283717321018
372 336 10 0.0 2.9494840305602175 4.0708277590788935 2.0055423059766766
373 337 10 0.0 2.976192731628106 2.6369922280659193 1.4348195357891593
374 338 10 0.0 2.2199147750742045 0.14183725988157755 0.12890462568028407
375 339 10 0.0 4.582931959027939 -0.38109099260550705 1.143835266260056
376 340 10 0.0 1.3329047553985314 1.9172630203417602 -0.032753301835884555
377 341 10 0.0 4.3776966771378465 0.9852699251833269 1.3589105959120018
378 342 10 0.0 2.5390134667800326 2.6299636225217387 -0.21971420931110566
379 343 10 0.0 3.8547684246507616 2.9111078442889884 3.6432073977709063
380 344 10 0.0 3.36838892099342 3.8965183415831985 0.08251582908868783
381 345 10 0.0 1.421465185255215 0.6282167635389198 4.167541371366827
382 346 10 0.0 1.16843538566469 1.4491578910992893 3.100599049760114
383 347 10 0.0 4.109203945350123 3.5507109488094812 3.489983796907755
384 348 10 0.0 2.844054947397499 0.6689826756951709 4.01994065493902
385 349 10 0.0 -0.18667976325345384 1.331077317957044 3.706464847668537
386 350 10 0.0 -0.022210393519612723 3.067142887369812 1.4334138146803233
387 351 10 0.0 0.18443060947931592 2.0789209478579287 2.6845056015445845
388 352 10 0.0 3.12098200583824 4.42085231517912 4.3165478089034695
389 353 10 0.0 2.97478701051927 1.2425168881003605 3.688190473253666
390 354 10 0.0 3.3641717576669112 4.129868045650016 1.4460653046598495
391 355 10 0.0 1.9612620910483345 3.736266135175866 3.305834331650207
392 356 10 0.0 1.2373157199976663 4.235297128812735 2.278252201090908
393 357 10 0.0 2.439207268052659 3.1711662494236936 4.465554246440112
394 358 10 0.0 0.47822632122609193 3.10509735730839 2.130651484663103
395 359 10 0.0 3.7760480425559324 2.7663185700788544 1.6316204910262344
396 360 10 0.0 3.2713941644837186 4.264817272098296 2.6873170437622567
397 361 10 0.0 0.4290260824168233 3.883866851603672 2.504573299613545
398 362 10 0.0 1.8642673345386331 1.1455221315906594 4.205495841305407
399 363 10 0.0 2.4982475546237812 4.190314053329975 0.7066560014119825
400 364 10 0.0 1.5254885473090973 3.1430518272469694 4.414948286522007
401 365 10 0.0 1.7026094070224647 3.477613451149996 0.7277418180445263
402 366 10 0.0 0.6075526632390268 1.7064048540163226 -0.31389752360313433
403 367 10 0.0 4.795195846462213 4.638739087048738 4.261724685658856
404 368 10 0.0 5.323746983384642 3.0826058195670107 3.5911957167439654
405 369 10 0.0 4.854236133033336 0.6563311857156447 3.9032658029056124
406 370 10 0.0 4.911870698495621 0.32598672513912613 3.1652622207665817
407 371 10 0.0 5.05103708827041 4.007570309181262 4.600503472888391
408 372 10 0.0 4.9863739172639425 1.4393178433374354 2.3864927264713
409 373 10 0.0 4.745995607652944 2.039560756810513 2.0969141780510325
410 374 10 0.0 4.776921472047341 1.353568855698424 4.558331839623304
411 375 10 0.0 5.357484289996712 0.11231711659601634 1.1803840150897982
412 376 10 0.0 5.389815875499946 4.545961493865545 0.05861857023847162
413 377 10 0.0 4.82612171085661 0.5129476326143473 1.3462591059324756
414 378 10 0.0 4.82612171085661 3.827638007250222 2.593133729470228
415 379 10 0.0 5.232375111310286 1.0218186740130695 -0.02713041740053955
416 380 10 0.0 5.319529820058133 3.7714091628967723 1.089012143015442
417 381 10 0.0 4.693983926626003 1.991766239110081 0.8640967656016423
418 382 10 0.0 5.446044719853396 1.414014863378383 3.0134443410122667
419 383 10 0.0 5.424958903220852 1.2397054458826882 4.3095192033592875
420 384 10 0.0 5.270329581248865 -0.2826905149869696 1.721586641991754