Lipid soup setup

45076 atoms
11264 bonds
8192 angles
0 dihedrals
0 impropers

6 atom types
2 bond types
3 angle types
0 dihedral types
0 improper types

0 29.837320360447322 xlo xhi
0 29.837320360447322 ylo yhi
0 16.877637130801688 zlo zhi

Masses

1 1
2 1
3 1
4 1
5 1
6 1

Atoms

1 1 5 8.861242189860825 0.5411716830791982 0.665794543429362 5.23259915133348
2 1 6 -8.861242189860825 0.6773085110438949 0.48078300085553705 5.615834275399239
3 1 3 0.0 0.6323883211052416 0.4527730162198177 6.116510519344916
4 1 3 0.0 0.38058360260148016 0.7903974896140262 6.181735644827131
5 1 1 0.0 0.6596535859292112 0.2879606934279546 6.651323637377988
6 1 2 0.0 0.945666159760833 0.45713607013234014 6.962886378222063
7 1 1 0.0 0.8454479461849652 0.2795162141724794 7.373361429831686
8 1 1 0.0 0.9127435270320321 0.25122862582346 7.853402844494768
9 1 1 0.0 0.47593883340109694 1.0376755892577094 6.61711169485593
10 1 1 0.0 0.3295611637560308 0.862904343739898 7.056642745397642
11 1 1 0.0 0.5196368752306698 0.9163151392751667 7.458893191957015
12 1 1 0.0 0.509633546401322 0.8448249553219693 7.945366611858003
13 2 5 8.861242189860825 0.6237312087115038 2.123532229970283 5.567763049048365
14 2 6 -8.861242189860825 0.47318657035682743 1.965245111538568 5.957523446129414
15 2 3 0.0 0.4561743188892743 2.009354627771344 6.458765920220232
16 2 3 0.0 0.756523671462838 2.3070928311860213 6.511609528402179
17 2 1 0.0 0.31528072830519244 1.962801906162149 6.99905603476364
18 2 2 0.0 0.5340021428949223 1.7060311198200477 7.3052006869074555
19 2 1 0.0 0.3580382483308865 1.7829382157642701 7.721378867451254
20 2 1 0.0 0.3560284586434352 1.7157869552032852 8.202268991698325
21 2 1 0.0 1.029579641103244 2.2510438179152428 6.938329962759416
22 2 1 0.0 0.8508516799562335 2.374255710541733 7.383340187631271
23 2 1 0.0 0.9444896815695676 2.1966336831039306 7.7839263218799015
24 2 1 0.0 0.8889539533995844 2.1998941810480184 8.27256980470688
25 3 5 8.861242189860825 0.40320848942872023 3.0639194790026174 5.321099608270759
26 3 6 -8.861242189860825 0.5415692426947418 3.2247098012105804 5.714335467992951
27 3 3 0.0 0.6252328984132712 3.142733464514619 6.203987749605823
28 3 3 0.0 0.4340788448614029 2.763875816263595 6.2437020853303276
29 3 1 0.0 0.8038646284163691 3.181049702426945 6.733661364748746
30 3 2 0.0 0.5535599751725796 3.329758719010562 7.083987000274283
31 3 1 0.0 0.7885321431559743 3.2730356435620447 7.473413302085431
32 3 1 0.0 0.8228136280099709 3.2937560588118964 7.957318341154008
33 3 1 0.0 0.20472709033218156 2.694814858758091 6.693612899143142
34 3 1 0.0 0.45916148436694837 2.592443111040613 7.105853264976352
35 3 1 0.0 0.3612492414233515 2.695863509775778 7.530711270357831
36 3 1 0.0 0.4680107374341016 2.6655286717212237 8.00982407735556
37 4 5 8.861242189860825 0.8126944479773142 4.688272030802593 5.252682084756131
38 4 6 -8.861242189860825 0.9906974101655227 4.677624353508488 5.662356637971238
39 4 3 0.0 0.9596395783823595 4.514646248878932 6.137701389126918
40 4 3 0.0 0.5633538609658306 4.3579345603185375 6.130680340069776
41 4 1 0.0 1.0757523254310333 4.373586400466595 6.667372529334619
42 4 2 0.0 0.9593221148088111 4.616980275744126 7.034385157846204
43 4 1 0.0 1.0658499266875792 4.381434846308003 7.412872208517078
44 4 1 0.0 1.0663328216861783 4.327868133384148 7.895468330265726
45 4 1 0.0 0.3105617485969355 4.416796474222813 6.569340580527601
46 4 1 0.0 0.3995900530188325 4.132346742647567 6.964715422973855
47 4 1 0.0 0.36089801761392337 4.233633672404709 7.399492141745816
48 4 1 0.0 0.3820619028623355 4.0944750147811835 7.870718477203739
49 5 5 8.861242189860825 0.4477869565218087 5.6059429480199325 5.594991167638439
50 5 6 -8.861242189860825 0.41419172271660853 5.780274527164018 6.005005225824542
51 5 3 0.0 0.5833857425835942 5.793345113707377 6.47901116182496
52 5 3 0.0 0.8394100535835625 5.452731896292829 6.469823855955054
53 5 1 0.0 0.6928973041775132 5.942504888265393 7.0078685595809995
54 5 2 0.0 0.4919936767225983 5.765639698103955 7.376448644419759
55 5 1 0.0 0.6939376926501127 5.930635343032224 7.753380101243456
56 5 1 0.0 0.7493356952108077 5.945134318154832 8.235551734254525
57 5 1 0.0 0.853136620652071 5.193235760478687 6.908303867354617
58 5 1 0.0 1.107007402950107 5.35430638905567 7.30170548571182
59 5 1 0.0 1.0230816696502445 5.290024534941014 7.737149196713804
60 5 1 0.0 1.155441819164916 5.347142779852026 8.20734660012883
61 6 5 8.861242189860825 0.9671370308495878 6.842766498562788 5.508433591087094
62 6 6 -8.861242189860825 0.9493420473582719 7.08275255511655 5.88489301566543
63 6 3 0.0 0.8856455647493828 7.09033576337773 6.384256948094167
64 6 3 0.0 0.7496979606428591 6.690557055603489 6.442096830854246
65 6 1 0.0 0.8806744100006727 7.239275478637782 6.924371580805544
66 6 2 0.0 0.5137533494893463 7.3835034692631965 7.1525427096289125
67 6 1 0.0 0.6197730977682666 7.431502309111203 7.595868995681953
68 6 1 0.0 0.4964622598624112 7.527892378639442 8.055512373094464
69 6 1 0.0 0.4031272284405694 6.64222329415464 6.8126962893372465
70 6 1 0.0 0.5269320596016811 6.653156022785379 7.291978872002967
71 6 1 0.0 0.2860923825707228 6.794728644569789 7.642322066111585
72 6 1 0.0 0.23976758889341498 6.855476670979488 8.128152275173942
73 7 5 8.861242189860825 0.3064445813123642 8.594648392302007 5.262787303512557
74 7 6 -8.861242189860825 0.1591862846226321 8.722594904894338 5.6647529128661835
75 7 3 0.0 0.24712413865358873 8.76427943695646 6.158724994638182
76 7 3 0.0 0.6035798520219504 8.532086662524636 6.1847261138131335
77 7 1 0.0 0.2252308772922886 8.910180483161673 6.699248016768985
78 7 2 0.0 0.0493202891992936 8.654086843427617 7.032364144627832
79 7 1 0.0 0.12854553552813236 8.855250713088832 7.436516008961677
80 7 1 0.0 0.10919189676213237 8.859131630172797 7.92167476421297
81 7 1 0.0 0.6459481943640133 8.267210482183645 6.61812767841353
82 7 1 0.0 0.77250426093403 8.481356438785415 7.046244515394168
83 7 1 0.0 0.6572948878563298 8.366722521987928 7.463824180133995
84 7 1 0.0 0.696358654645552 8.437464199184634 7.948939566914425
85 8 5 8.861242189860825 1.1294152127323072 9.334572439408696 5.477825776827261
86 8 6 -8.861242189860825 1.228539931498525 9.273883108198799 5.909245250586093
87 8 3 0.0 1.0950096684338373 9.33388186634611 6.390959794503572
88 8 3 0.0 0.7620184932061931 9.594543415514277 6.337831155377303
89 8 1 0.0 1.0562216587403461 9.29194876153748 6.948336393093209
90 8 2 0.0 1.2271466886203317 9.591706035811464 7.245699895620819
91 8 1 0.0 1.094368402369384 9.477900097712975 7.669374778887749
92 8 1 0.0 1.071666977593612 9.564637137605157 8.146585396824708
93 8 1 0.0 0.7087887434323705 9.93938872670549 6.709368083059291
94 8 1 0.0 0.5257620509095046 9.821213480568359 7.153996912360133
95 8 1 0.0 0.6154597684281986 10.003430530002001 7.553419216816394
96 8 1 0.0 0.5283104809997561 10.029404816379214 8.036738613703589
97 9 5 8.861242189860825 0.7022877830793552 11.50493402006252 5.6255899450384135
98 9 6 -8.861242189860825 0.5141890808017096 11.429556702476157 6.023796933081671
99 9 3 0.0 0.5700825997368999 11.393232377344342 6.522831543003397
100 9 3 0.0 0.995692107654278 11.39855501036952 6.5447046917856895
101 9 1 0.0 0.47711594929376366 11.368300795152788 7.074798195750677
102 9 2 0.0 0.48182048251244197 10.98693279666892 7.323858748738772
103 9 1 0.0 0.43898075398336844 11.09462108493769 7.7673114088804835
104 9 1 0.0 0.4277160678237999 10.970944501654365 8.236721519807986
105 9 1 0.0 1.1867033295475236 11.106775514647195 6.916418052494977
106 9 1 0.0 1.1758662857061124 11.245244803351726 7.391673530514231
107 9 1 0.0 1.1517240024979585 10.99015147879968 7.759275838532009
108 9 1 0.0 1.1507597681410209 10.952144530655131 8.249604140187477
109 10 5 8.861242189860825 0.7794446047551551 12.683848512014473 5.64668819615131
110 10 6 -8.861242189860825 0.696007508479731 12.855324643501639 6.05074989246371
111 10 3 0.0 0.6477469026470942 12.778452792938033 6.5459677399516245
112 10 3 0.0 0.6499050114826759 12.352270261413084 6.549710824092472
113 10 1 0.0 0.6105740099136404 12.847960798143374 7.100691437740378
114 10 2 0.0 0.22349862746681498 12.835389030474289 7.34050269876965
115 10 1 0.0 0.3211165479828608 12.85848902451582 7.787737987434204
116 10 1 0.0 0.18663636959226704 12.850607633249666 8.254237299266093
117 10 1 0.0 0.34837954987978287 12.147685623295303 6.90610794163735
118 10 1 0.0 0.4758308128484428 12.137233532939089 7.384444522086459
119 10 1 0.0 0.21241840680026847 12.147511183840063 7.746791296822188
120 10 1 0.0 0.16303264534635747 12.127827463310563 8.235709387069651
121 11 5 8.861242189860825 0.6397553358821186 13.282934222712692 5.33193612213224
122 11 6 -8.861242189860825 0.7024820944923674 13.117547838480542 5.742234019758344
123 11 3 0.0 0.6854024599225771 13.191345573870983 6.239970158981903
124 11 3 0.0 0.6222535521356892 13.612819829185325 6.244648389650715
125 11 1 0.0 0.6717907497635027 13.11759465270716 6.795224236503411
126 11 2 0.0 1.024872483959858 13.180238501040119 7.076122579677704
127 11 1 0.0 0.8836805227040873 13.135383130638408 7.509868008910493
128 11 1 0.0 0.9643547190401647 13.15358341388613 7.988333333028253
129 11 1 0.0 0.8512262092382734 13.851311922690684 6.632571612953642
130 11 1 0.0 0.6725410112505881 13.83488704375316 7.094048349304303
131 11 1 0.0 0.8939323098300594 13.855216213904365 7.483097868882178
132 11 1 0.0 0.8867763648533237 13.872682026584929 7.974535595454314
133 12 5 8.861242189860825 0.22500050216396733 14.899467840817067 5.463736553772029
134 12 6 -8.861242189860825 0.14575513586817979 14.98596089093839 5.894863903093421
135 12 3 0.0 0.3217532848838267 15.005662134667395 6.3661553166514935
136 12 3 0.0 0.6962740327478221 14.81082000220701 6.307666248208498
137 12 1 0.0 0.38974559674380027 15.114419421503491 6.911573015042565
138 12 2 0.0 0.30434616662011965 14.82103673648019 7.249401935382728
139 12 1 0.0 0.4402603711348233 15.003732290584168 7.647185714689073
140 12 1 0.0 0.5131379011779712 14.975250350231473 8.12639995418581
141 12 1 0.0 0.8441051553044764 14.525263563970803 6.703134152504676
142 12 1 0.0 1.0296597002065122 14.724293188850044 7.116795456118508
143 12 1 0.0 1.0067756420397405 14.572383789730248 7.537731039397468
144 12 1 0.0 1.1306704886642227 14.616372269568368 8.011632275818013
145 13 5 8.861242189860825 0.4584329591024057 16.237933692975698 5.424890022069174
146 13 6 -8.861242189860825 0.6564167360298574 16.085636307801003 5.795348653597749
147 13 3 0.0 0.6334419941230082 16.01234843175762 6.292922901740007
148 13 3 0.0 0.28408445154938017 16.24051374496486 6.379756740683141
149 13 1 0.0 0.7251226012261063 15.832702930943771 6.815659669098853
150 13 2 0.0 0.9436626442376723 16.068177346883658 7.138594478299415
151 13 1 0.0 0.9171650533067566 15.841453803276545 7.536057160832698
152 13 1 0.0 0.9995294165018882 15.807027379544454 8.013340698860526
153 13 1 0.0 0.29929231742748763 16.477242026553647 6.830888456542682
154 13 1 0.0 0.22895074213196387 16.235793624331805 7.2574018639173286
155 13 1 0.0 0.39789661827063505 16.32442933327339 7.662849657061742
156 13 1 0.0 0.4221416111038945 16.222965309720532 8.143458160426459
157 14 5 8.861242189860825 0.22374161578228535 17.65892285378468 5.579988855543668
158 14 6 -8.861242189860825 0.11306466018560196 17.65351284939554 6.012831795284971
159 14 3 0.0 0.2621826516444361 17.68728863589377 6.492521387442939
160 14 3 0.0 0.6841022602325648 17.671130775555866 6.434443975932206
161 14 1 0.0 0.27569197634926235 17.74865329020762 7.04928295667809
162 14 2 0.0 0.3167571760620089 17.40812100804363 7.349026607372924
163 14 1 0.0 0.3625885678249158 17.581713147732124 7.770746329611411
164 14 1 0.0 0.4376049127656167 17.528777611893766 8.247547147233535
165 14 1 0.0 0.93400924437269 17.426215325423083 6.805057393265095
166 14 1 0.0 1.018214315840928 17.633000584565906 7.246994399365663
167 14 1 0.0 1.0573096241312396 17.436155761493087 7.647632120291479
168 14 1 0.0 1.1489293824519375 17.4702858393747 8.12961579110258
169 15 5 8.861242189860825 0.6299258462611899 19.267397716426647 5.451879683945969
170 15 6 -8.861242189860825 0.430916915431893 19.18323886426717 5.842960749947524
171 15 3 0.0 0.45929309715163386 19.183152562153495 6.345627507171357
172 15 3 0.0 0.8761139299179178 19.25978873419244 6.390766279827297
173 15 1 0.0 0.3357936088835136 19.17252870679078 6.892039968344207
174 15 2 0.0 0.38577709188518694 18.810917748696195 7.164499154954
175 15 1 0.0 0.29729570566299435 18.93342362748999 7.59721803079676
176 15 1 0.0 0.2755770926253976 18.834653787311222 8.072130089147214
177 15 1 0.0 1.087094994365692 19.02365905496358 6.7901672670252236
178 15 1 0.0 1.0230835438634969 19.18344765966953 7.2544183745431265
179 15 1 0.0 1.0165423409024963 18.94772617420227 7.635442658391872
180 15 1 0.0 0.9897687958301878 18.936138334328874 8.126376666697288
181 16 5 8.861242189860825 0.45313649818177626 20.32219872165739 5.529185056055827
182 16 6 -8.861242189860825 0.42209372139834506 20.069053987055185 5.896044370349858
183 16 3 0.0 0.3669997657005496 20.046000541050706 6.395956641281326
184 16 3 0.0 0.41627304378061464 20.458891845724175 6.489461362455874
185 16 1 0.0 0.26990004927167044 19.872079875144145 6.91965007705294
186 16 2 0.0 0.5918131407209106 19.777050506583656 7.227604980601688
187 16 1 0.0 0.39421717621048685 19.689802155162194 7.631864589690817
188 16 1 0.0 0.42047264532848744 19.590840954061754 8.106507585705753
189 16 1 0.0 0.6528279196005038 20.543035327287832 6.933029901442919
190 16 1 0.0 0.4235185289053956 20.487607452803868 7.3683503683292075
191 16 1 0.0 0.5955751437234589 20.368633996910837 7.7646188997819765
192 16 1 0.0 0.535978547975829 20.291087461003105 8.246596162527323
193 17 5 8.861242189860825 0.7840918206845998 21.407822189490037 5.562317530519625
194 17 6 -8.861242189860825 0.7591423911058609 21.239073906425695 5.975274199018954
195 17 3 0.0 0.682708830578456 21.32030338978543 6.466231188798286
196 17 3 0.0 0.6891602550058405 21.746458260493778 6.46702086218353
197 17 1 0.0 0.5772912578322235 21.25605813735016 7.012757721114923
198 17 2 0.0 0.8915961667534609 21.263407905540515 7.34238364104643
199 17 1 0.0 0.6839032211108454 21.24711667937874 7.7506488830618405
200 17 1 0.0 0.6965871105006941 21.257323736549306 8.235935991464428
201 17 1 0.0 0.8955834347551725 21.948756658047365 6.886849651992357
202 17 1 0.0 0.6519347821992523 21.966946783273414 7.317504279591798
203 17 1 0.0 0.8152048431842078 21.955272504748944 7.734629571724052
204 17 1 0.0 0.7401753756789885 21.979238059890815 8.220081456499585
205 18 5 8.861242189860825 0.5492032066770943 22.596033591750174 5.301081252201442
206 18 6 -8.861242189860825 0.45494360278086976 22.750658154242494 5.709539375977819
207 18 3 0.0 0.5313690520094003 22.720066507265287 6.206230815203832
208 18 3 0.0 0.7509713316526766 22.3550314619175 6.219439627908219
209 18 1 0.0 0.5519574745044085 22.828015871085604 6.755643792244039
210 18 2 0.0 0.26876705171261284 22.654074623208714 7.067160194189692
211 18 1 0.0 0.4100711748128052 22.776036214477738 7.4857779035707885
212 18 1 0.0 0.3738830094192196 22.758585403327096 7.969673066311142
213 18 1 0.0 0.6563738831320558 22.07235617414153 6.632885377622834
214 18 1 0.0 0.8449138341646389 22.183985798562286 7.0769016708342205
215 18 1 0.0 0.6739959609176922 22.10572239932217 7.483655689712508
216 18 1 0.0 0.719332919456094 22.12300338274067 7.973056577596939
217 19 5 8.861242189860825 0.603527534153457 23.636793346920633 5.5680870299071366
218 19 6 -8.861242189860825 0.5588750657726704 23.517255713028387 5.996279251091128
219 19 3 0.0 0.6301267190924837 23.63125927705258 6.481465270308442
220 19 3 0.0 0.8800021158648708 23.973456742557854 6.435493550966526
221 19 1 0.0 0.6044091951125946 23.644475856120188 7.041014641345816
222 19 2 0.0 0.9176847431097636 23.46923297463296 7.321448600541664
223 19 1 0.0 0.8135041702156238 23.580128481140253 7.753803624133853
224 19 1 0.0 0.914303593544908 23.584402050582167 8.228766628491655
225 19 1 0.0 1.2346105991212157 24.02009597631625 6.798631250771963
226 19 1 0.0 1.1253647307987018 24.180134074370088 7.254275961315866
227 19 1 0.0 1.3221740769545713 24.078244213345283 7.643726148651243
228 19 1 0.0 1.3607226629363132 24.14490177851916 8.12946072306755
229 20 5 8.861242189860825 0.31135776615884553 25.125463207795736 5.440769120419145
230 20 6 -8.861242189860825 0.4670733657700676 24.9225272537654 5.807104100636771
231 20 3 0.0 0.4516464267102046 24.87396390977822 6.307986017985556
232 20 3 0.0 0.20972535131726872 25.211968157025407 6.402206718541395
233 20 1 0.0 0.5080699306506605 24.686291736655043 6.832892782343317
234 20 2 0.0 0.814880745676239 24.838156789717726 7.13339065487612
235 20 1 0.0 0.7364391623080675 24.644715195475946 7.541446458870324
236 20 1 0.0 0.831777847506474 24.595198884601647 8.014972923505534
237 20 1 0.0 0.33490388520940884 25.43924800730841 6.840915719874703
238 20 1 0.0 0.21217083504984963 25.24805915679116 7.280850233930252
239 20 1 0.0 0.4267481293587228 25.2817589525153 7.6727785685333405
240 20 1 0.0 0.44461430902087523 25.189877866171845 8.155589056050045
241 21 5 8.861242189860825 0.505993096673117 27.081902901507604 5.372495411210064
242 21 6 -8.861242189860825 0.6071228302748021 27.213468039362184 5.78733882578295
243 21 3 0.0 0.6519522743220041 27.09437425497031 6.274459011589912
244 21 3 0.0 0.4678800578170799 26.71001841144708 6.268276540388627
245 21 1 0.0 0.7850071707338694 27.093776664590173 6.818726964951851
246 21 2 0.0 0.5028035260145993 27.209382463710902 7.157092512949794
247 21 1 0.0 0.7060393362626343 27.12628919728338 7.559426933630766
248 21 1 0.0 0.6995323632031657 27.109073676440218 8.044638153401685
249 21 1 0.0 0.20384107332400114 26.601053447999163 6.690415658395448
250 21 1 0.0 0.4257370014539392 26.471015958776782 7.113513050607881
251 21 1 0.0 0.2903241508863664 26.538428436193943 7.535301894366415
252 21 1 0.0 0.35772239003906536 26.472077762895445 8.017922207626688
253 22 5 8.861242189860825 0.8670155563216557 28.038837546447247 5.556117696608486
254 22 6 -8.861242189860825 0.7160927908737998 28.189545986328895 5.948725582608684
255 22 3 0.0 0.7588457507784507 28.192520477772756 6.450365314662486
256 22 3 0.0 1.03814374703498 27.874016168454478 6.497246574483663
257 22 1 0.0 0.7182093177854794 28.323585339324286 6.993598459831587
258 22 2 0.0 0.44761803087493535 28.11347407278112 7.293812471954362
259 22 1 0.0 0.5328552951426555 28.275084175860975 7.714168338952952
260 22 1 0.0 0.4637510557271821 28.270108542745362 8.194760151011574
261 22 1 0.0 0.9641769126283821 27.59510235868882 6.917398187205537
262 22 1 0.0 1.0956696967449342 27.756085191815387 7.366790143057765
263 22 1 0.0 0.9110224583799036 27.66399261172898 7.764547939947671
264 22 1 0.0 0.9153227139602793 27.70810845265526 8.254346471632692
265 23 5 8.861242189860825 0.4665372897456814 29.21367098544805 5.532298865746698
266 23 6 -8.861242189860825 0.28985965191026236 29.26573744803486 5.939368593059019
267 23 3 0.0 0.3610792371851923 29.37776741322578 6.425018818558356
268 23 3 0.0 0.7871906983134106 29.376648245771506 6.433849925455575
269 23 1 0.0 0.2855027619292845 29.520848824693452 6.961439804082355
270 23 2 0.0 0.2901822040586782 29.23080790308505 7.312650863943855
271 23 1 0.0 0.26399440632779214 29.46669364817283 7.70476613535247
272 23 1 0.0 0.26529837730847344 29.48855866551359 8.189831969362919
273 23 1 0.0 0.9839007535393176 29.20300790024015 6.870823114701425
274 23 1 0.0 0.9913718884033045 29.476768410507617 7.283325623763863
275 23 1 0.0 0.973733095606075 29.343336971214836 7.710726881280063
276 23 1 0.0 0.987820256828108 29.452869610249746 8.18996737845684
277 24 5 8.861242189860825 2.2908018088590776 0.772820258651994 5.587587231361712
278 24 6 -8.861242189860825 2.442722775778201 0.733800963618648 6.005952121806636
279 24 3 0.0 2.342988514160904 0.6341781311995943 6.4892816701227165
280 24 3 0.0 1.917144443457732 0.6307308756478007 6.472101385906258
281 24 1 0.0 2.3869586621388112 0.5065486396290068 7.033072904511854
282 24 2 0.0 2.358005716059554 0.805930259595877 7.3751653108796
283 24 1 0.0 2.3624061307332984 0.581068521690896 7.774539955460992
284 24 1 0.0 2.3316232874776017 0.5723443858010329 8.259044804417071
285 24 1 0.0 1.6923977770902179 0.8139208510695934 6.891293170659456
286 24 1 0.0 1.6623196285912558 0.551373627167382 7.31000932156002
287 24 1 0.0 1.6524819139219544 0.696529829395602 7.733825091977169
288 24 1 0.0 1.6101386760661482 0.5998738168208435 8.214170766154139
289 25 5 8.861242189860825 1.8910409630038367 1.784718631728334 5.33678913038202
290 25 6 -8.861242189860825 1.9117561291968075 1.6789103930619538 5.770387061248219
291 25 3 0.0 1.7717892759610365 1.7826296950238425 6.2427541540381215
292 25 3 0.0 1.5921188850981032 2.1637976692071073 6.178881277213662
293 25 1 0.0 1.6650231984212218 1.751848701872956 6.791921799459476
294 25 2 0.0 1.9196907422042293 1.940898941408478 7.118876369744436
295 25 1 0.0 1.7104275080759814 1.8891568391947726 7.523368551693798
296 25 1 0.0 1.681750201326546 1.9684021979453157 8.001559337721694
297 25 1 0.0 1.6585380749334109 2.4902810642625304 6.564612359079805
298 25 1 0.0 1.400363253629552 2.4562597809575286 6.985738550081825
299 25 1 0.0 1.521345479644203 2.573443540407939 7.400971229960377
300 25 1 0.0 1.4079558486147514 2.626227203812915 7.8766013149130085
301 26 5 8.861242189860825 1.5230174342039147 3.0641803493871995 5.444853401820911
302 26 6 -8.861242189860825 1.3816175141360305 3.059955161215912 5.868669255136058
303 26 3 0.0 1.4777224421273003 3.1617454527858264 6.352282389069447
304 26 3 0.0 1.894073491105738 3.247945930724485 6.322761211800455
305 26 1 0.0 1.4296948111632037 3.2613360018472073 6.901560676308126
306 26 2 0.0 1.5279292125573503 2.9625995793821227 7.231107932753431
307 26 1 0.0 1.4948247066520988 3.169721219530539 7.638645648098233
308 26 1 0.0 1.5408095673651374 3.1690118737611024 8.12202286318151
309 26 1 0.0 2.164788852911438 3.0985632354922843 6.727964107632273
310 26 1 0.0 2.1589570739820334 3.3486958518280443 7.155232898231837
311 26 1 0.0 2.211768866605184 3.194941772771803 7.572794281339774
312 26 1 0.0 2.2520516715744883 3.282827384912081 8.05499830046656
313 27 5 8.861242189860825 1.6818768772935933 4.943744824992365 5.393237651294584
314 27 6 -8.861242189860825 1.9007394269066438 4.9418647252169245 5.78275955919354
315 27 3 0.0 1.9188876510800263 4.788710934441402 6.262023205097764
316 27 3 0.0 1.5245329798171177 4.63125196115331 6.298646739523445
317 27 1 0.0 2.0888942032329862 4.658831256383335 6.7798654678407955
318 27 2 0.0 2.009569452913658 4.909582571480726 7.1517877768232445
319 27 1 0.0 2.1549847304289895 4.68209298829849 7.522172925237938
320 27 1 0.0 2.2048427433780833 4.638527700494018 8.00319775504526
321 27 1 0.0 1.317542299747858 4.698775341991901 6.759501201308845
322 27 1 0.0 1.4474514853869513 4.422713478738788 7.1494658227358086
323 27 1 0.0 1.4528918433578588 4.53291581391903 7.583761527015147
324 27 1 0.0 1.5224816003095683 4.403574866320463 8.053117986714168
325 28 5 8.861242189860825 2.4290853728348933 5.603925598415745 5.255847404393177
326 28 6 -8.861242189860825 2.418847796945727 5.435755712293139 5.669665901530456
327 28 3 0.0 2.2546079532964907 5.477035672555458 6.14379702537046
328 28 3 0.0 2.095010719295845 5.871870120018399 6.126923961463064
329 28 1 0.0 2.1132460222967944 5.372660361928768 6.675825376706971
330 28 2 0.0 2.3549770800233185 5.499679514997981 7.040417028338117
331 28 1 0.0 2.1193924504670396 5.4005516376054095 7.420884921593168
332 28 1 0.0 2.064776198971336 5.411283001459494 7.903244274721384
333 28 1 0.0 2.1510588662877015 6.135569323771656 6.55948923827293
334 28 1 0.0 1.8664061575501707 6.053980649733268 6.956320535549131
335 28 1 0.0 1.966456297951972 6.103867340127474 7.390242416141259
336 28 1 0.0 1.8264270819942932 6.093018885945444 7.861561237089066
337 29 5 8.861242189860825 2.0725959825233478 7.214102765353304 5.270255293821761
338 29 6 -8.861242189860825 2.156994958036841 7.4298970771572765 5.652277930660019
339 29 3 0.0 2.1766047464492324 7.416756154058147 6.155191299237047
340 29 3 0.0 1.985094012171091 7.041817272895708 6.2214837749680925
341 29 1 0.0 2.284118825043205 7.530640443315893 6.693152877042167
342 29 2 0.0 1.9889150907653026 7.718530479637553 6.984780947492455
343 29 1 0.0 2.1714211706273323 7.720877852333781 7.405219161992853
344 29 1 0.0 2.141961727735624 7.807400039191913 7.88209933043528
345 29 1 0.0 1.6994742783109396 7.027937549209468 6.64340806253989
346 29 1 0.0 1.8986759938027988 6.988645176755029 7.094998298077451
347 29 1 0.0 1.7451869119501953 7.145686216006835 7.485595436664351
348 29 1 0.0 1.78863889835481 7.182885650784499 7.9740577465606295
349 30 5 8.861242189860825 2.006321033122104 8.09032916044213 5.262019003013535
350 30 6 -8.861242189860825 2.1024946552624204 7.991242766112879 5.686947453455222
351 30 3 0.0 1.962564768243358 8.001913052224085 6.17046048913069
352 30 3 0.0 1.6237252737609162 8.258412068302947 6.13811439169831
353 30 1 0.0 1.9191132406763858 7.906207436974776 6.720809439881098
354 30 2 0.0 2.0794280442930053 8.180303124220961 7.047406377909515
355 30 1 0.0 1.9451906756968085 8.023549398036934 7.456662861984299
356 30 1 0.0 1.9154270402302735 8.06390718655008 7.939626646918558
357 30 1 0.0 1.5580781327141064 8.564959888540425 6.539997795589226
358 30 1 0.0 1.37350467240968 8.400662375591637 6.969064130566652
359 30 1 0.0 1.4545115328200033 8.546129902980315 7.385073743401984
360 30 1 0.0 1.3617797005250882 8.52389603768426 7.86754007774327
361 31 5 8.861242189860825 1.5582461221698112 9.644710030117878 5.344085633297633
362 31 6 -8.861242189860825 1.4271168393408526 9.610583781218654 5.769846337745994
363 31 3 0.0 1.481487351399244 9.761273819703721 6.247146498729465
364 31 3 0.0 1.841513315113735 9.985909487318066 6.207518975761778
365 31 1 0.0 1.4015546194621107 9.86258077762287 6.792379683956172
366 31 2 0.0 1.5978606522213274 9.632131700677272 7.132750079837469
367 31 1 0.0 1.4943888557024207 9.832889700579225 7.53158849869651
368 31 1 0.0 1.5375982152480012 9.87013504892701 8.013785945726246
369 31 1 0.0 2.147249040480718 9.958871185592857 6.614441548270432
370 31 1 0.0 2.054303737666653 10.210298755766757 7.030739881755108
371 31 1 0.0 2.1573842118332314 10.103691654037267 7.453582940863269
372 31 1 0.0 2.1643056912361733 10.221823716175019 7.930934184998496
373 32 5 8.861242189860825 2.04058849836843 10.566749470111176 5.312272757555962
374 32 6 -8.861242189860825 2.264434245241751 10.671750816167702 5.684427921519296
375 32 3 0.0 2.288451783124432 10.657364551028829 6.18711597310236
376 32 3 0.0 1.8943054011164344 10.51834797032856 6.2706218898391795
377 32 1 0.0 2.4648542487807505 10.675219652797576 6.718618497161678
378 32 2 0.0 2.390785894831328 11.019668488970398 7.007346258482864
379 32 1 0.0 2.540521182938733 10.902995061084654 7.424537972540376
380 32 1 0.0 2.5964741697026508 10.99421866133281 7.898158243092475
381 32 1 0.0 1.6933806917485072 10.712091393689043 6.697100647355768
382 32 1 0.0 1.8277716101013124 10.554261064619412 7.146753427966463
383 32 1 0.0 1.8389988690596126 10.780507645312229 7.5333712551687375
384 32 1 0.0 1.9143709972377763 10.78597809813919 8.01933053093087
385 33 5 8.861242189860825 1.5403212948200693 12.289429378964142 5.541592577173095
386 33 6 -8.861242189860825 1.4830529368206875 12.056213114249973 5.918371260455945
387 33 3 0.0 1.4967540062737776 12.047062014904698 6.421568659129253
388 33 3 0.0 1.6894588948691813 12.420688406785969 6.491699704258088
389 33 1 0.0 1.4260127444973076 11.908568101347052 6.959849884345206
390 33 2 0.0 1.7412967359905192 11.711118272492834 7.222727064314635
391 33 1 0.0 1.5871079727340889 11.68843172244644 7.653764669738927
392 33 1 0.0 1.6487797888898121 11.581368714610855 8.123341864769877
393 33 1 0.0 2.002330179747576 12.418984515829735 6.894067743989216
394 33 1 0.0 1.833241349203353 12.436355369724428 7.359112016764426
395 33 1 0.0 2.0134641710666754 12.263914395228124 7.7313629478900605
396 33 1 0.0 2.0027903103545275 12.20486212956137 8.21948813662407
397 34 5 8.861242189860825 1.810852268559162 13.832182895043179 5.470671466440589
398 34 6 -8.861242189860825 1.9386994244030629 13.641477990535563 5.8539708419565155
399 34 3 0.0 1.8920614632318606 13.615140722993903 6.3545808027755175
400 34 3 0.0 1.6544893938825003 13.962949981777623 6.419684179485401
401 34 1 0.0 1.9117969052031367 13.449092402048636 6.889342464706964
402 34 2 0.0 2.204254215753437 13.606043531802804 7.201319877879308
403 34 1 0.0 2.0962288724423463 13.432575242011655 7.611589970863085
404 34 1 0.0 2.161721496983858 13.401286897950415 8.09169454103968
405 34 1 0.0 1.7595695483361289 14.205836421562891 6.855293777693886
406 34 1 0.0 1.6055097457942629 14.037127474693213 7.294567978288177
407 34 1 0.0 1.7971762485652008 14.082377576650652 7.697064302393026
408 34 1 0.0 1.7836268746964348 14.011147246198888 8.18348999635973
409 35 5 8.861242189860825 1.823130744243027 14.554437859385922 5.5066972782269605
410 35 6 -8.861242189860825 1.581910707576983 14.610561805753225 5.878577183151286
411 35 3 0.0 1.572898088242033 14.72336350150403 6.369162174853473
412 35 3 0.0 1.991522181358618 14.716137389880457 6.448860796314364
413 35 1 0.0 1.411160366831914 14.869517698560296 6.8853127612002565
414 35 2 0.0 1.3529746197175019 14.580750692951115 7.2327647395503245
415 35 1 0.0 1.265342149559656 14.818449354009127 7.614736162909095
416 35 1 0.0 1.1861586421077435 14.842101349285683 8.093212074439585
417 35 1 0.0 2.110104590401236 14.541310728155525 6.912719863444331
418 35 1 0.0 2.0528230325770505 14.816470953703853 7.320352821177504
419 35 1 0.0 1.9622652996382468 14.684901689845004 7.739012273169385
420 35 1 0.0 1.8979552893977878 14.796005683336944 8.213762129907128
421 36 5 8.861242189860825 1.7766025054307693 16.203890235899195 5.503721666091072
422 36 6 -8.861242189860825 1.569202714788525 16.212861526843103 5.899368617187483