Lipid soup setup

4400 atoms
1408 bonds
1024 angles
0 dihedrals
0 impropers

6 atom types
2 bond types
3 angle types
0 dihedral types
0 improper types

0 10.674354971032503 xlo xhi
0 10.674354971032503 ylo yhi
0 12.872062500000002 zlo zhi

Masses

1 1
2 1
3 1
4 1
5 1
6 1

Atoms

1 1 5 8.861242189860825 0.5596814696285705 0.6843043299787342 3.2298118359326375
2 1 6 -8.861242189860825 0.6958182975932672 0.49929278740490934 3.613046959998396
3 1 3 0.0 0.6508981076546139 0.47128280276919 4.113723203944073
4 1 3 0.0 0.39909338915085246 0.8089072761633986 4.178948329426288
5 1 1 0.0 0.6781633724785835 0.3064704799773269 4.648536321977145
6 1 2 0.0 0.9641759463102053 0.47564585668171244 4.96009906282122
7 1 1 0.0 0.8639577327343375 0.2980260007218517 5.370574114430843
8 1 1 0.0 0.9312533135814044 0.2697384123728323 5.8506155290939255
9 1 1 0.0 0.49444861995046924 1.0561853758070816 4.614324379455087
10 1 1 0.0 0.3480709503054031 0.8814141302892704 5.0538554299967995
11 1 1 0.0 0.5381466617800421 0.934824925824539 5.4561058765561725
12 1 1 0.0 0.5281433329506943 0.8633347418713417 5.94257929645716
13 2 5 8.861242189860825 0.6422409952608762 2.1790615896184 3.564975733647522
14 2 6 -8.861242189860825 0.49169635690619984 2.020774471186685 3.954736130728571
15 2 3 0.0 0.4746841054386467 2.064883987419461 4.455978604819389
16 2 3 0.0 0.7750334580122105 2.3626221908341383 4.508822213001336
17 2 1 0.0 0.33379051485456485 2.018331265810266 4.9962687193627975
18 2 2 0.0 0.5525119294442947 1.7615604794681647 5.302413371506613
19 2 1 0.0 0.3765480348802589 1.8384675754123871 5.718591552050411
20 2 1 0.0 0.3745382451928076 1.7713163148514022 6.1994816762974825
21 2 1 0.0 1.0480894276526165 2.3065731775633598 4.935542647358573
22 2 1 0.0 0.8693614665056059 2.42978507018985 5.380552872230428
23 2 1 0.0 0.96299946811894 2.2521630427520476 5.781139006479059
24 2 1 0.0 0.9074637399489568 2.2554235406961354 6.269782489306037
25 3 5 8.861242189860825 0.4217182759780925 3.1564684117494783 3.3183122928699165
26 3 6 -8.861242189860825 0.5600790292441141 3.3172587339574413 3.711548152592109
27 3 3 0.0 0.6437426849626435 3.23528239726148 4.2012004342049805
28 3 3 0.0 0.4525886314107752 2.856424749010456 4.240914769929485
29 3 1 0.0 0.8223744149657413 3.273598635173806 4.730874049347904
30 3 2 0.0 0.5720697617219519 3.422307651757423 5.08119968487344
31 3 1 0.0 0.8070419297053466 3.3655845763089056 5.470625986684588
32 3 1 0.0 0.8413234145593431 3.3863049915587573 5.954531025753165
33 3 1 0.0 0.22323687688155386 2.787363791504952 4.690825583742299
34 3 1 0.0 0.47767127091632067 2.684992043787474 5.103065949575509
35 3 1 0.0 0.3797590279727238 2.788412442522639 5.5279239549569885
36 3 1 0.0 0.4865205239834739 2.7580776044680846 6.007036761954717
37 4 5 8.861242189860825 0.8312042345266865 4.817840536648199 3.249894769355288
38 4 6 -8.861242189860825 1.009207196714895 4.807192859354094 3.6595693225703947
39 4 3 0.0 0.9781493649317318 4.644214754724538 4.134914073726075
40 4 3 0.0 0.5818636475152029 4.487503066164144 4.127893024668933
41 4 1 0.0 1.0942621119804055 4.503154906312202 4.664585213933776
42 4 2 0.0 0.9778319013581835 4.746548781589732 5.031597842445361
43 4 1 0.0 1.0843597132369514 4.511003352153609 5.4100848931162355
44 4 1 0.0 1.0848426082355507 4.457436639229754 5.892681014864883
45 4 1 0.0 0.3290715351463078 4.546364980068419 4.566553265126758
46 4 1 0.0 0.4180998395682048 4.261915248493173 4.961928107573012
47 4 1 0.0 0.37940780416329567 4.363202178250315 5.3967048263449735
48 4 1 0.0 0.4005716894117078 4.22404352062679 5.867931161802896
49 5 5 8.861242189860825 0.46629674307118113 5.772531026964283 3.5922038522375965
50 5 6 -8.861242189860825 0.43270150926598094 5.946862606108368 4.002217910423699
51 5 3 0.0 0.6018955291329666 5.959933192651728 4.4762238464241175
52 5 3 0.0 0.8579198401329349 5.61931997523718 4.467036540554211
53 5 1 0.0 0.7114070907268856 6.109092967209744 5.005081244180157
54 5 2 0.0 0.5105034632719707 5.932227777048306 5.373661329018916
55 5 1 0.0 0.7124474791994851 6.097223421976574 5.750592785842613
56 5 1 0.0 0.7678454817601801 6.111722397099182 6.232764418853683
57 5 1 0.0 0.8716464072014434 5.359823839423037 4.905516551953774
58 5 1 0.0 1.1255171894994793 5.52089446800002 5.298918170310977
59 5 1 0.0 1.041591456199617 5.456612613885365 5.734361881312961
60 5 1 0.0 1.1739516057142882 5.513730858796377 6.204559284727986
61 6 5 8.861242189860825 0.9856468173989601 7.0463741506058835 3.5056462756862516
62 6 6 -8.861242189860825 0.9678518339076443 7.286360207159646 3.882105700264587
63 6 3 0.0 0.9041553512987552 7.293943415420826 4.3814696326933245
64 6 3 0.0 0.7682077471922314 6.894164707646585 4.439309515453403
65 6 1 0.0 0.8991841965500451 7.442883130680878 4.921584265404701
66 6 2 0.0 0.5322631360387186 7.587111121306292 5.14975539422807
67 6 1 0.0 0.6382828843176389 7.635109961154299 5.59308168028111
68 6 1 0.0 0.5149720464117835 7.731500030682538 6.05272505769362
69 6 1 0.0 0.4216370149899417 6.8458309461977365 4.809908973936404
70 6 1 0.0 0.5454418461510535 6.856763674828475 5.289191556602124
71 6 1 0.0 0.3046021691200951 6.998336296612885 5.639534750710742
72 6 1 0.0 0.2582773754427873 7.059084323022584 6.1253649597730995
73 7 5 8.861242189860825 0.3249543678617365 8.835275617443848 3.259999988111714
74 7 6 -8.861242189860825 0.1776960711720044 8.96322213003618 3.6619655974653407
75 7 3 0.0 0.26563392520296103 9.004906662098302 4.155937679237339
76 7 3 0.0 0.6220896385713226 8.772713887666477 4.181938798412291
77 7 1 0.0 0.2437406638416609 9.150807708303514 4.696460701368142
78 7 2 0.0 0.0678300757486659 8.894714068569458 5.029576829226989
79 7 1 0.0 0.14705532207750466 9.095877938230673 5.433728693560834
80 7 1 0.0 0.12770168331150467 9.099758855314638 5.918887448812127
81 7 1 0.0 0.6644579809133855 8.507837707325486 4.615340363012687
82 7 1 0.0 0.7910140474834022 8.721983663927256 5.043457199993325
83 7 1 0.0 0.675804674405702 8.607349747129769 5.461036864733152
84 7 1 0.0 0.7148684411949244 8.678091424326475 5.946152251513582
85 8 5 8.861242189860825 1.1479249992816798 9.612219237649281 3.4750384614264185
86 8 6 -8.861242189860825 1.2470497180478974 9.551529906439384 3.9064579351852498
87 8 3 0.0 1.1135194549832095 9.611528664586695 4.388172479102729
88 8 3 0.0 0.7805282797555655 9.872190213754862 4.33504383997646
89 8 1 0.0 1.0747314452897185 9.569595559778065 4.945549077692366
90 8 2 0.0 1.2456564751697043 9.86935283405205 5.2429125802199765
91 8 1 0.0 1.1128781889187565 9.755546895953561 5.6665874634869065
92 8 1 0.0 1.0901767641429845 9.842283935845742 6.143798081423865
93 8 1 0.0 0.7272985299817429 10.217035524946075 4.706580767658449
94 8 1 0.0 0.544271837458877 10.098860278808944 5.15120959695929
95 8 1 0.0 0.633969554977571 10.281077328242587 5.550631901415551
96 8 1 0.0 0.5468202675491285 10.3070516146198 6.033951298302746
97 9 5 8.861242189860825 2.055091941007791 1.1452454203693443 3.6228026296375706
98 9 6 -8.861242189860825 1.8669932387301453 1.0698681027829817 4.0210096176808285
99 9 3 0.0 1.9228867576653355 1.0335437776511667 4.520044227602554
100 9 3 0.0 2.3484962655827135 1.0388664106763457 4.541917376384847
101 9 1 0.0 1.8299201072221993 1.0086121954596126 5.0720108803498345
102 9 2 0.0 1.8346246404408777 0.6272441969757464 5.321071433337929
103 9 1 0.0 1.7917849119118041 0.7349324852445165 5.764524093479641
104 9 1 0.0 1.7805202257522357 0.6112559019611901 6.233934204407143
105 9 1 0.0 2.539507487475959 0.7470869149540197 4.913630737094135
106 9 1 0.0 2.528670443634548 0.8855562036585513 5.388886215113388
107 9 1 0.0 2.504528160426394 0.6304628791065053 5.756488523131166
108 9 1 0.0 2.5035639260694564 0.5924559309619564 6.246816824786634
109 10 5 8.861242189860825 2.1322487626835906 2.3611794854200423 3.6439008807504667
110 10 6 -8.861242189860825 2.0488116664081666 2.5326556169072094 4.047962577062867
111 10 3 0.0 2.0005510605755297 2.455783766343603 4.543180424550782
112 10 3 0.0 2.002709169411111 2.0296012348186543 4.546923508691629
113 10 1 0.0 1.9633781678420759 2.5252917715489436 5.097904122339535
114 10 2 0.0 1.5763027853952503 2.512720003879859 5.337715383368807
115 10 1 0.0 1.6739207059112962 2.535819997921389 5.784950672033361
116 10 1 0.0 1.5394405275207024 2.527938606655236 6.25144998386525
117 10 1 0.0 1.7011837078082181 1.825016596700873 4.903320626236507
118 10 1 0.0 1.828634970776878 1.8145645063446583 5.381657206685616
119 10 1 0.0 1.5652225647287037 1.8248421572456333 5.744003981421345
120 10 1 0.0 1.5158368032747929 1.8051584367161335 6.232922071668809
121 11 5 8.861242189860825 1.992559493810554 2.9972847692170066 3.3291488067313972
122 11 6 -8.861242189860825 2.0552862524208027 2.831898384984857 3.7394467043575013
123 11 3 0.0 2.0382066178510123 2.9056961203752985 4.23718284358106
124 11 3 0.0 1.9750577100641247 3.327170375689639 4.241861074249872
125 11 1 0.0 2.024594907691938 2.831945199211475 4.792436921102568
126 11 2 0.0 2.3776766418882933 2.894589047544434 5.073335264276861
127 11 1 0.0 2.2364846806325227 2.849733677142723 5.50708069350965
128 11 1 0.0 2.3171588769686 2.867933960390446 5.98554601762741
129 11 1 0.0 2.2040303671667085 3.5656624691949985 4.629784297552799
130 11 1 0.0 2.0253451691790234 3.549237590257475 5.09126103390346
131 11 1 0.0 2.246736467758495 3.5695667604086805 5.480310553481335
132 11 1 0.0 2.239580522781759 3.587032573089244 5.971748280053471
133 12 5 8.861242189860825 1.5778046600924027 4.650837960420125 3.460949238371186
134 12 6 -8.861242189860825 1.4985592937966152 4.737331010541449 3.892076587692579
135 12 3 0.0 1.674557442812262 4.757032254270452 4.363368001250651
136 12 3 0.0 2.0490781906762576 4.562190121810068 4.3048789328076555
137 12 1 0.0 1.7425497546722357 4.86578954110655 4.908785699641722
138 12 2 0.0 1.657150324548555 4.572406856083249 5.2466146199818855
139 12 1 0.0 1.7930645290632587 4.755102410187227 5.64439839928823
140 12 1 0.0 1.8659420591064066 4.726620469834531 6.123612638784968
141 12 1 0.0 2.196909313232912 4.276633683573862 4.700346837103833
142 12 1 0.0 2.3824638581349475 4.475663308453102 5.114008140717665
143 12 1 0.0 2.359579799968176 4.323753909333306 5.5349437239966255
144 12 1 0.0 2.483474646592658 4.3677423891714255 6.008844960417169
145 13 5 8.861242189860825 1.8112371170308412 6.026323385677499 3.4221027066683307
146 13 6 -8.861242189860825 2.0092208939582927 5.874026000502805 3.7925613381969066
147 13 3 0.0 1.9862461520514436 5.800738124459422 4.290135586339164
148 13 3 0.0 1.6368886094778157 6.028903437666665 4.376969425282298
149 13 1 0.0 2.0779267591545416 5.621092623645573 4.81287235369801
150 13 2 0.0 2.296466802166108 5.85656703958546 5.135807162898572
151 13 1 0.0 2.269969211235192 5.629843495978347 5.533269845431855
152 13 1 0.0 2.3523335744303235 5.5954170722462555 6.0105533834596825
153 13 1 0.0 1.652096475355923 6.26563171925545 4.828101141141839
154 13 1 0.0 1.5817549000603992 6.024183317033606 5.254614548516486
155 13 1 0.0 1.7507007761990705 6.112819025975191 5.6600623416608995
156 13 1 0.0 1.77494576903233 6.0113550024223334 6.140670845025617
157 14 5 8.861242189860825 1.5765457737107207 7.48433211958523 3.577201540142825
158 14 6 -8.861242189860825 1.4658688181140374 7.47892211519609 4.010044479884128
159 14 3 0.0 1.6149868095728714 7.5126979016943185 4.489734072042096
160 14 3 0.0 2.036906418161 7.496540041356417 4.431656660531363
161 14 1 0.0 1.6284961342776976 7.574062556008172 5.0464956412772475
162 14 2 0.0 1.6695613339904443 7.233530273844178 5.346239291972081
163 14 1 0.0 1.7153927257533512 7.407122413532674 5.767959014210568
164 14 1 0.0 1.790409070694052 7.354186877694316 6.244759831832692
165 14 1 0.0 2.2868134023011253 7.251624591223633 4.802270077864252
166 14 1 0.0 2.3710184737693636 7.458409850366455 5.24420708396482
167 14 1 0.0 2.410113782059675 7.261565027293635 5.644844804890636
168 14 1 0.0 2.501733540380373 7.29569510517525 6.126828475701737
169 15 5 8.861242189860825 1.9827300041896256 9.129826555325941 3.4490923685451262
170 15 6 -8.861242189860825 1.7837210733603286 9.045667703166464 3.840173434546682
171 15 3 0.0 1.8120972550800696 9.04558140105279 4.342840191770514
172 15 3 0.0 2.2289180878463535 9.122217573091733 4.387978964426454
173 15 1 0.0 1.6885977668119492 9.034957545690073 4.889252652943364
174 15 2 0.0 1.7385812498136226 8.67334658759549 5.161711839553157
175 15 1 0.0 1.65009986359143 8.795852466389285 5.594430715395917
176 15 1 0.0 1.6283812505538333 8.697082626210515 6.069342773746371
177 15 1 0.0 2.4398991522941276 8.886087893862873 4.787379951624381
178 15 1 0.0 2.3758877017919326 9.04587649856882 5.251631059142284
179 15 1 0.0 2.369346498830932 8.810155013101564 5.632655342991029
180 15 1 0.0 2.3425729537586237 8.798567173228168 6.123589351296444
181 16 5 8.861242189860825 1.8059406561102116 10.221647133655427 3.5263977406549842
182 16 6 -8.861242189860825 1.7748978793267804 9.968502399053222 3.8932570549490153
183 16 3 0.0 1.7198039236289848 9.945448953048741 4.393169325880483
184 16 3 0.0 1.76907720170905 10.358340257722212 4.486674047055031
185 16 1 0.0 1.6227042072001059 9.771528287142184 4.916862761652097
186 16 2 0.0 1.944617298649346 9.676498918581691 5.224817665200845
187 16 1 0.0 1.7470213341389222 9.589250567160233 5.629077274289974
188 16 1 0.0 1.7732768032569228 9.490289366059791 6.103720270304909
189 16 1 0.0 2.005632077528939 10.44248373928587 4.930242586042076
190 16 1 0.0 1.7763226868338309 10.387055864801903 5.365563052928365
191 16 1 0.0 1.9483793016518942 10.268082408908874 5.761831584381134
192 16 1 0.0 1.8887827059042643 10.190535873001142 6.2438088471264805
193 17 5 8.861242189860825 3.4711903499920975 0.6699352035543158 3.559530215118782
194 17 6 -8.861242189860825 3.446240920413359 0.5011869204899706 3.972486883618111
195 17 3 0.0 3.3698073598859537 0.5824164038497066 4.463443873397443
196 17 3 0.0 3.3762587843133383 1.008571274558054 4.464233546782687
197 17 1 0.0 3.2643897871397214 0.5181711514144369 5.00997040571408
198 17 2 0.0 3.5786946960609587 0.5255209196047911 5.339596325645587
199 17 1 0.0 3.371001750418343 0.5092296934430164 5.747861567660998
200 17 1 0.0 3.383685639808192 0.5194367506135821 6.2331486760635855
201 17 1 0.0 3.58268196406267 1.210869672111642 4.884062336591514
202 17 1 0.0 3.33903331150675 1.2290597973376902 5.314716964190955
203 17 1 0.0 3.5023033724917054 1.2173855188132199 5.731842256323209
204 17 1 0.0 3.427273904986486 1.2413510739550913 6.217294141098742
205 18 5 8.861242189860825 3.2363017359845925 1.8951661789132004 3.2982939368005986
206 18 6 -8.861242189860825 3.142042132088368 2.049790741405521 3.706752060576976
207 18 3 0.0 3.218467581316898 2.0191990944283136 4.203443499802989
208 18 3 0.0 3.4380698609601748 1.6541640490805243 4.216652312507376
209 18 1 0.0 3.2390560038119065 2.12714845824863 4.7528564768431965
210 18 2 0.0 2.955865581020111 1.9532072103717402 5.064372878788849
211 18 1 0.0 3.0971697041203035 2.0751688016407637 5.482990588169946
212 18 1 0.0 3.060981538726718 2.057717990490123 5.966885750910299
213 18 1 0.0 3.343472412439554 1.3714887613045548 4.630098062221991
214 18 1 0.0 3.5320123634721368 1.4831183857253127 5.074114355433378
215 18 1 0.0 3.3610944902251902 1.4048549864851931 5.480868374311665
216 18 1 0.0 3.406431448763592 1.4221359699036937 5.970269262196096
217 19 5 8.861242189860825 3.290626063460955 2.9729455071823985 3.5652997145062937
218 19 6 -8.861242189860825 3.2459735950801685 2.853407873290152 3.9934919356902845
219 19 3 0.0 3.317225248399982 2.9674114373143436 4.4786779549075995
220 19 3 0.0 3.567100645172369 3.3096089028196216 4.432706235565683
221 19 1 0.0 3.2915077244200925 2.9806280163819534 5.038227325944973
222 19 2 0.0 3.6047832724172615 2.805385134894726 5.318661285140821
223 19 1 0.0 3.500602699523122 2.916280641402018 5.75101630873301
224 19 1 0.0 3.601402122852406 2.9205542108439335 6.225979313090813
225 19 1 0.0 3.9217091284287138 3.356248136578016 4.79584393537112
226 19 1 0.0 3.8124632601062 3.5162862346318557 5.251488645915023
227 19 1 0.0 4.009272606262069 3.414396373607048 5.6409388332504005
228 19 1 0.0 4.047821192243811 3.481053938780927 6.126673407666708
229 20 5 8.861242189860825 2.9984562954663434 4.498634941156249 3.4379818050183024
230 20 6 -8.861242189860825 3.1541718950775657 4.295698987125913 3.804316785235928
231 20 3 0.0 3.1387449560177028 4.247135643138732 4.305198702584713
232 20 3 0.0 2.896823880624767 4.5851398903859195 4.399419403140552
233 20 1 0.0 3.1951684599581585 4.059463470015559 4.830105466942475
234 20 2 0.0 3.501979274983737 4.21132852307824 5.130603339475277
235 20 1 0.0 3.4235376916155653 4.017886928836462 5.538659143469481
236 20 1 0.0 3.5188763768139717 3.968370617962162 6.012185608104691
237 20 1 0.0 3.0220024145169067 4.812419740668925 4.83812840447386
238 20 1 0.0 2.8992693643573477 4.621230890151676 5.278062918529409
239 20 1 0.0 3.113846658666221 4.654930685875816 5.669991253132498
240 20 1 0.0 3.131712838328373 4.56304959953236 6.152801740649203
241 21 5 8.861242189860825 3.1930916259806152 6.4920942079668595 3.3697080958092216
242 21 6 -8.861242189860825 3.2942213595823002 6.623659345821441 3.784551510382107
243 21 3 0.0 3.3390508036295024 6.504565561429568 4.2716716961890695
244 21 3 0.0 3.154978587124578 6.120209717906336 4.2654892249877845
245 21 1 0.0 3.4721057000413675 6.503967971049429 4.815939649551008
246 21 2 0.0 3.1899020553220976 6.619573770170158 5.154305197548951
247 21 1 0.0 3.3931378655701323 6.536480503742639 5.556639618229923
248 21 1 0.0 3.386630892510664 6.519264982899473 6.041850838000842
249 21 1 0.0 2.8909396026314993 6.011244754458418 4.687628342994605
250 21 1 0.0 3.1128355307614375 5.881207265236037 5.110725735207038
251 21 1 0.0 2.9774226801938646 5.948619742653198 5.532514578965572
252 21 1 0.0 3.0448209193465634 5.8822690693547015 6.015134892225845
253 22 5 8.861242189860825 3.5541140856291538 7.4860484260052464 3.553330381207643
254 22 6 -8.861242189860825 3.403191320181298 7.636756865886896 3.9459382672078407
255 22 3 0.0 3.445944280085949 7.639731357330757 4.447577999261643
256 22 3 0.0 3.725242276342478 7.32122704801248 4.49445925908282
257 22 1 0.0 3.405307847092977 7.770796218882286 4.990811144430744
258 22 2 0.0 3.1347165601824334 7.560684952339121 5.291025156553519
259 22 1 0.0 3.2199538244501538 7.722295055418976 5.711381023552109
260 22 1 0.0 3.1508495850346803 7.717319422303362 6.191972835610731
261 22 1 0.0 3.6512754419358804 7.0423132382468205 4.914610871804694
262 22 1 0.0 3.7827682260524322 7.203296071373385 5.364002827656922
263 22 1 0.0 3.598120987687402 7.111203491286977 5.761760624546828
264 22 1 0.0 3.6024212432677776 7.155319332213261 6.251559156231849
265 23 5 8.861242189860825 3.153635819053179 8.697901438104799 3.529511550345856
266 23 6 -8.861242189860825 2.97695818121776 8.749967900691606 3.936581277658176
267 23 3 0.0 3.04817776649269 8.861997865882527 4.422231503157513
268 23 3 0.0 3.4742892276209085 8.860878698428255 4.431062610054732
269 23 1 0.0 2.9726012912367823 9.005079277350202 4.958652488681512
270 23 2 0.0 2.977280733366176 8.715038355741799 5.309863548543012
271 23 1 0.0 2.95109293563529 8.950924100829578 5.701978819951627
272 23 1 0.0 2.9523969066159714 8.972789118170338 6.187044653962076
273 23 1 0.0 3.6709992828468154 8.687238352896896 4.868035799300582
274 23 1 0.0 3.6784704177108023 8.960998863164367 5.28053830836302
275 23 1 0.0 3.660831624913573 8.827567423871583 5.7079395658792205
276 23 1 0.0 3.674918786135606 8.937100062906495 6.187180063055997
277 24 5 8.861242189860825 3.6806255398862575 10.131390644854807 3.584799915960869
278 24 6 -8.861242189860825 3.832546506805381 10.09237134982146 4.003164806405793
279 24 3 0.0 3.732812245188084 9.992748517402408 4.486494354721874
280 24 3 0.0 3.306968174484912 9.989301261850613 4.4693140705054155
281 24 1 0.0 3.776782393165991 9.86511902583182 5.030285589111011
282 24 2 0.0 3.7478294470867337 10.16450064579869 5.372377995478757
283 24 1 0.0 3.7522298617604783 9.939638907893709 5.771752640060149
284 24 1 0.0 3.7214470185047817 9.930914772003845 6.256257489016227
285 24 1 0.0 3.082221508117398 10.172491237272407 4.888505855258613
286 24 1 0.0 3.052143359618436 9.909944013370195 5.3072220061591775
287 24 1 0.0 3.0423056449491344 10.055100215598415 5.7310377765763265
288 24 1 0.0 2.999962407093328 9.958444203023657 6.211383450753296
289 25 5 8.861242189860825 4.61515906541008 0.5059536199973877 3.3340018149811774
290 25 6 -8.861242189860825 4.635874231603051 0.4001453813310077 3.7675997458473764
291 25 3 0.0 4.49590737836728 0.5038646832928964 4.239966838637279
292 25 3 0.0 4.316236987504347 0.8850326574761611 4.176093961812819
293 25 1 0.0 4.389141300827465 0.4730836901420099 4.789134484058633
294 25 2 0.0 4.643808844610472 0.662133929677532 5.116089054343593
295 25 1 0.0 4.434545610482225 0.6103918274638266 5.520581236292955
296 25 1 0.0 4.405868303732789 0.6896371862143694 5.9987720223208525
297 25 1 0.0 4.382656177339654 1.2115160525315845 4.5618250436789625
298 25 1 0.0 4.124481356035796 1.1774947692265822 4.982951234680982
299 25 1 0.0 4.245463582050446 1.2946785286769926 5.398183914559534
300 25 1 0.0 4.1320739510209945 1.3474621920819687 5.873813999512166
301 26 5 8.861242189860825 4.247135536610157 1.8224349107549986 3.442066086420068
302 26 6 -8.861242189860825 4.105735616542273 1.8182097225837115 3.865881939735215
303 26 3 0.0 4.2018405445335425 1.9200000141536258 4.349495073668604
304 26 3 0.0 4.61819159351198 2.0062004920922845 4.319973896399612
305 26 1 0.0 4.153812913569446 2.019590563215006 4.898773360907283
306 26 2 0.0 4.252047314963593 1.7208541407499218 5.228320617352588
307 26 1 0.0 4.218942809058341 1.9279757808983382 5.63585833269739
308 26 1 0.0 4.26492766977138 1.9272664351289015 6.119235547780667
309 26 1 0.0 4.8889069553176805 1.8568177968600836 4.72517679223143
310 26 1 0.0 4.883075176388276 2.106950413195843 5.152445582830994
311 26 1 0.0 4.935886969011427 1.9531963341396024 5.570006965938931
312 26 1 0.0 4.976169773980731 2.0410819462798804 6.052210985065717
313 27 5 8.861242189860825 4.4059949796998366 3.7390189594589076 3.390450335893741
314 27 6 -8.861242189860825 4.624857529312887 3.7371388596834674 3.779972243792697
315 27 3 0.0 4.643005753486269 3.583985068907944 4.259235889696921
316 27 3 0.0 4.248651082223361 3.4265260956198524 4.295859424122602
317 27 1 0.0 4.813012305639229 3.454105390849878 4.777078152439953
318 27 2 0.0 4.733687555319901 3.704856705947269 5.149000461422402
319 27 1 0.0 4.879102832835232 3.4773671227650333 5.519385609837095
320 27 1 0.0 4.928960845784326 3.4338018349605606 6.000410439644417
321 27 1 0.0 4.041660402154101 3.494049476458444 4.7567138859080025
322 27 1 0.0 4.171569587793194 3.217987613205331 5.146678507334966
323 27 1 0.0 4.177009945764103 3.3281899483855724 5.580974211614304
324 27 1 0.0 4.2465997027158116 3.1988490007870065 6.050330671313326
325 28 5 8.861242189860825 5.153203475241137 4.436219305981033 3.253060088992334
326 28 6 -8.861242189860825 5.14296589935197 4.268049419858427 3.666878586129613
327 28 3 0.0 4.978726055702734 4.309329380120746 4.141009709969617
328 28 3 0.0 4.819128821702089 4.704163827583687 4.1241366460622215
329 28 1 0.0 4.837364124703037 4.204954069494056 4.673038061306128
330 28 2 0.0 5.079095182429562 4.331973222563269 5.0376297129372745
331 28 1 0.0 4.843510552873283 4.2328453451706975 5.418097606192325
332 28 1 0.0 4.78889430137758 4.243576709024782 5.900456959320541
333 28 1 0.0 4.875176968693944 4.967863031336944 4.5567019228720875
334 28 1 0.0 4.590524259956414 4.886274357298556 4.953533220148288
335 28 1 0.0 4.690574400358215 4.936161047692762 5.387455100740416
336 28 1 0.0 4.550545184400536 4.925312593510732 5.858773921688223
337 29 5 8.861242189860825 4.79671408492959 6.083416046017336 3.2674679784209184
338 29 6 -8.861242189860825 4.881113060443084 6.299210357821309 3.649490615259176
339 29 3 0.0 4.900722848855475 6.2860694347221795 4.152403983836204
340 29 3 0.0 4.709212114577333 5.91113055355974 4.21869645956725
341 29 1 0.0 5.008236927449448 6.399953723979926 4.6903655616413245
342 29 2 0.0 4.713033193171546 6.587843760301586 4.981993632091612
343 29 1 0.0 4.895539273033576 6.590191132997814 5.40243184659201
344 29 1 0.0 4.866079830141866 6.676713319855946 5.879312015034437
345 29 1 0.0 4.423592380717182 5.8972508298735 4.640620747139047
346 29 1 0.0 4.6227940962090415 5.857958457419062 5.092210982676608
347 29 1 0.0 4.469305014356438 6.0149994966708675 5.482808121263508
348 29 1 0.0 4.512757000761053 6.052198931448531 5.971270431159787
349 30 5 8.861242189860825 4.730439135528347 6.996662014204906 3.259231687612692
350 30 6 -8.861242189860825 4.826612757668664 6.8975756198756555 3.684160138054379
351 30 3 0.0 4.6866828706496015 6.9082459059868615 4.167673173729847
352 30 3 0.0 4.34784337616716 7.164744922065723 4.135327076297467
353 30 1 0.0 4.643231343082629 6.8125402907375525 4.718022124480255
354 30 2 0.0 4.803546146699249 7.086635977983739 5.044619062508672
355 30 1 0.0 4.669308778103051 6.929882251799712 5.453875546583456
356 30 1 0.0 4.639545142636517 6.970240040312858 5.9368393315177155
357 30 1 0.0 4.28219623512035 7.471292742303203 4.537210480188383
358 30 1 0.0 4.097622774815924 7.3069952293544125 4.966276815165809
359 30 1 0.0 4.178629635226247 7.452462756743092 5.382286428001141
360 30 1 0.0 4.085897802931331 7.430228891447037 5.864752762342427
361 31 5 8.861242189860825 4.282364224576054 8.5880624569794 3.3412983178967903
362 31 6 -8.861242189860825 4.151234941747095 8.553936208080177 3.767059022345151
363 31 3 0.0 4.205605453805487 8.704626246565244 4.244359183328622
364 31 3 0.0 4.565631417519978 8.92926191417959 4.2047316603609355
365 31 1 0.0 4.125672721868353 8.805933204484393 4.789592368555329
366 31 2 0.0 4.321978754627571 8.575484127538795 5.129962764436626
367 31 1 0.0 4.218506958108664 8.776242127440748 5.528801183295667
368 31 1 0.0 4.261716317654244 8.813487475788532 6.010998630325403
369 31 1 0.0 4.87136714288696 8.90222361245438 4.611654232869589
370 31 1 0.0 4.7784218400728955 9.15365118262828 5.027952566354265
371 31 1 0.0 4.881502314239474 9.04704408089879 5.450795625462426
372 31 1 0.0 4.888423793642416 9.165176143036541 5.928146869597653
373 32 5 8.861242189860825 4.764706600774673 9.547121470071442 3.309485442155119
374 32 6 -8.861242189860825 4.988552347647994 9.652122816127967 3.681640606118453
375 32 3 0.0 5.0125698855306755 9.637736550989095 4.184328657701517
376 32 3 0.0 4.618423503522678 9.498719970288825 4.267834574438337
377 32 1 0.0 5.188972351186994 9.655591652757842 4.715831181760835
378 32 2 0.0 5.114903997237572 10.000040488930663 5.004558943082021
379 32 1 0.0 5.264639285344977 9.88336706104492 5.421750657139533
380 32 1 0.0 5.320592272108894 9.974590661293076 5.895370927691632
381 32 1 0.0 4.417498794154751 9.692463393649309 4.694313331954925
382 32 1 0.0 4.551889712507556 9.534633064579678 5.14396611256562
383 32 1 0.0 4.563116971465856 9.760879645272494 5.530583939767895
384 32 1 0.0 4.638489099644019 9.766350098099455 6.016543215530026
385 33 5 8.861242189860825 5.598733768605375 0.6324659809906482 3.538805261772252
386 33 6 -8.861242189860825 5.541465410605993 0.399249716276479 3.9155839450551024
387 33 3 0.0 5.555166480059084 0.3900986169312053 4.41878134372841
388 33 3 0.0 5.747871368654487 0.7637250088124752 4.488912388857245
389 33 1 0.0 5.484425218282613 0.2516047033735601 4.957062568944363
390 33 2 0.0 5.799709209775825 0.054154874519341756 5.219939748913792
391 33 1 0.0 5.645520446519395 0.031468324472946896 5.650977354338084
392 33 1 0.0 5.707192262675118 10.598760287669867 6.120554549369034
393 33 1 0.0 6.060742653532882 0.7620211178562415 4.891280428588373
394 33 1 0.0 5.891653822988658 0.7793919717509357 5.356324701363583
395 33 1 0.0 6.071876644851981 0.6069509972546308 5.728575632489218
396 33 1 0.0 6.061202784139833 0.5478987315878765 6.216700821223228
397 34 5 8.861242189860825 5.869264742344467 2.212239070168429 3.4678841510397453
398 34 6 -8.861242189860825 5.997111898188368 2.021534165660815 3.851183526555673
399 34 3 0.0 5.950473937017166 1.9951968981191548 4.351793487374675
400 34 3 0.0 5.712901867667806 2.343006156902873 4.416896864084558
401 34 1 0.0 5.970209378988442 1.829148577173888 4.886555149306121
402 34 2 0.0 6.262666689538742 1.9860997069280544 5.198532562478465
403 34 1 0.0 6.154641346227652 1.8126314171369053 5.6088026554622425
404 34 1 0.0 6.220133970769163 1.7813430730756667 6.088907225638836
405 34 1 0.0 5.817982022121434 2.585892596688142 4.852506462293043
406 34 1 0.0 5.663922219579568 2.4171836498184645 5.2917806628873345
407 34 1 0.0 5.8555887223505065 2.4624337517759027 5.694276986992183
408 34 1 0.0 5.84203934848174 2.39120342132414 6.180702680958887
409 35 5 8.861242189860825 5.881543218028333 2.9715136076099196 3.503909962826117
410 35 6 -8.861242189860825 5.640323181362288 3.027637553977221 3.8757898677504437
411 35 3 0.0 5.6313105620273385 3.1404392497280273 4.36637485945263
412 35 3 0.0 6.0499346551439235 3.1332131381044537 4.446073480913521
413 35 1 0.0 5.46957284061722 3.2865934467842934 4.882525445799414
414 35 2 0.0 5.411387093502808 2.997826441175112 5.229977424149482
415 35 1 0.0 5.3237546233449615 3.235525102233124 5.611948847508252
416 35 1 0.0 5.2445711158930495 3.2591770975096788 6.090424759038741
417 35 1 0.0 6.168517064186542 2.958386476379521 4.909932548043488
418 35 1 0.0 6.111235506362356 3.23354670192785 5.3175655057766615
419 35 1 0.0 6.020677773423553 3.1019774380690017 5.736224957768542
420 35 1 0.0 5.956367763183094 3.2130814315609393 6.210974814506285
421 36 5 8.861242189860825 5.835014979216075 4.6579855572219335 3.500934350690229
422 36 6 -8.861242189860825 5.62761518857383 4.6669568481658406 3.8965813017866404
423 36 3 0.0 5.6647207320703865 4.665470452356798 4.398676963214116
424 36 3 0.0 6.078830576980417 4.572034178270469 4.436530857638602
425 36 1 0.0 5.559127244587634 4.715170975577975 4.94668375242662