Lipid soup setup

4400 atoms
1408 bonds
1024 angles
0 dihedrals
0 impropers

6 atom types
2 bond types
3 angle types
0 dihedral types
0 improper types

0 10.525055940292381 xlo xhi
0 10.525055940292381 ylo yhi
0 13.239835714285714 zlo zhi

Masses

1 1
2 1
3 1
4 1
5 1
6 1

Atoms

1 1 5 8.861242189860825 0.5503502802073128 0.6749731405574766 3.4136984430754937
2 1 6 -8.861242189860825 0.6864871081720095 0.4899615979836517 3.7969335671412523
3 1 3 0.0 0.6415669182333562 0.46195161334793233 4.29760981108693
4 1 3 0.0 0.3897621997295948 0.7995760867421409 4.362834936569144
5 1 1 0.0 0.6688321830573258 0.29713929055606925 4.832422929120002
6 1 2 0.0 0.9548447568889477 0.4663146672604548 5.143985669964076
7 1 1 0.0 0.8546265433130799 0.28869481130059405 5.554460721573699
8 1 1 0.0 0.9219221241601467 0.26040722295157465 6.034502136236782
9 1 1 0.0 0.4851174305292116 1.046854186385824 4.798210986597943
10 1 1 0.0 0.3387397608841454 0.8720829408680126 5.237742037139656
11 1 1 0.0 0.5288154723587845 0.9254937364032814 5.639992483699029
12 1 1 0.0 0.5188121435294366 0.854003552450084 6.126465903600017
13 2 5 8.861242189860825 0.6329098058396184 2.1510680213546265 3.748862340790378
14 2 6 -8.861242189860825 0.48236516748494207 1.9927809029229118 4.138622737871428
15 2 3 0.0 0.46535291601738893 2.0368904191556876 4.639865211962245
16 2 3 0.0 0.7657022685909527 2.334628622570365 4.692708820144192
17 2 1 0.0 0.3244593254333071 1.9903376975464926 5.180155326505654
18 2 2 0.0 0.543180740023037 1.7335669112043914 5.486299978649469
19 2 1 0.0 0.36721684545900113 1.8104740071486138 5.902478159193267
20 2 1 0.0 0.3652070557715498 1.7433227465876289 6.383368283440339
21 2 1 0.0 1.0387582382313587 2.2785796092995865 5.119429254501429
22 2 1 0.0 0.8600302770843481 2.4017915019260765 5.564439479373284
23 2 1 0.0 0.9536682786976822 2.2241694744882743 5.965025613621915
24 2 1 0.0 0.898132550527699 2.227429972432362 6.453669096448893
25 3 5 8.861242189860825 0.41238708655683487 3.1098124646431904 3.5021989000127727
26 3 6 -8.861242189860825 0.5507478398228565 3.2706027868511534 3.895434759734965
27 3 3 0.0 0.6344114955413859 3.188626450155192 4.385087041347837
28 3 3 0.0 0.44325744198951755 2.809768801904168 4.424801377072341
29 3 1 0.0 0.8130432255444837 3.226942688067518 4.91476065649076
30 3 2 0.0 0.5627385723006942 3.375651704651135 5.265086292016297
31 3 1 0.0 0.797710740284089 3.3189286292026177 5.6545125938274445
32 3 1 0.0 0.8319922251380856 3.3396490444524694 6.138417632896021
33 3 1 0.0 0.2139056874602962 2.740707844398664 4.874712190885155
34 3 1 0.0 0.468340081495063 2.638336096681186 5.286952556718365
35 3 1 0.0 0.37042783855146616 2.741756495416351 5.711810562099845
36 3 1 0.0 0.47718933456221624 2.7114216573617966 6.190923369097574
37 4 5 8.861242189860825 0.8218730451054288 4.752522210699396 3.4337813764981444
38 4 6 -8.861242189860825 0.9998760072936373 4.741874533405291 3.843455929713251
39 4 3 0.0 0.9688181755104741 4.578896428775734 4.318800680868931
40 4 3 0.0 0.5725324580939453 4.42218474021534 4.311779631811789
41 4 1 0.0 1.084930922559148 4.437836580363398 4.848471821076632
42 4 2 0.0 0.9685007119369258 4.681230455640929 5.215484449588217
43 4 1 0.0 1.0750285238156938 4.4456850262048055 5.593971500259092
44 4 1 0.0 1.0755114188142931 4.3921183132809505 6.076567622007739
45 4 1 0.0 0.31974034572505017 4.4810466541196154 4.750439872269614
46 4 1 0.0 0.40876865014694713 4.196596922544369 5.145814714715868
47 4 1 0.0 0.370076614742038 4.297883852301512 5.58059143348783
48 4 1 0.0 0.39124049999045013 4.158725194677986 6.051817768945752
49 5 5 8.861242189860825 0.45696555364992336 5.688550322172964 3.7760904593804527
50 5 6 -8.861242189860825 0.4233703198447232 5.862881901317049 4.186104517566555
51 5 3 0.0 0.5925643397117089 5.875952487860409 4.660110453566974
52 5 3 0.0 0.8485886507116771 5.535339270445861 4.650923147697068
53 5 1 0.0 0.7020759013056278 6.025112262418425 5.188967851323013
54 5 2 0.0 0.501172273850713 5.848247072256987 5.557547936161773
55 5 1 0.0 0.7031162897782274 6.013242717185255 5.93447939298547
56 5 1 0.0 0.7585142923389223 6.027741692307863 6.416651025996539
57 5 1 0.0 0.8623152177801856 5.275843134631718 5.08940315909663
58 5 1 0.0 1.1161860000782216 5.436913763208701 5.4828047774538335
59 5 1 0.0 1.0322602667783591 5.3726319090940455 5.918248488455817
60 5 1 0.0 1.1646204162930305 5.429750154005058 6.388445891870842
61 6 5 8.861242189860825 0.9763156279777024 6.943731066972049 3.689532882829108
62 6 6 -8.861242189860825 0.9585206444863865 7.1837171235258115 4.065992307407443
63 6 3 0.0 0.8948241618774975 7.191300331786992 4.565356239836181
64 6 3 0.0 0.7588765577709737 6.79152162401275 4.6231961225962594
65 6 1 0.0 0.8898530071287873 7.340240047047043 5.105470872547557
66 6 2 0.0 0.5229319466174609 7.484468037672458 5.333642001370926
67 6 1 0.0 0.6289516948963813 7.532466877520465 5.7769682874239665
68 6 1 0.0 0.5056408569905259 7.628856947048703 6.236611664836476
69 6 1 0.0 0.41230582556868406 6.743187862563902 4.99379558107926
70 6 1 0.0 0.5361106567297957 6.75412059119464 5.47307816374498
71 6 1 0.0 0.2952709796988374 6.89569321297905 5.823421357853598
72 6 1 0.0 0.24894618602152963 6.95644123938875 6.309251566915956
73 7 5 8.861242189860825 0.3156231784404788 8.713970154967498 3.44388659525457
74 7 6 -8.861242189860825 0.16836488175074674 8.841916667559829 3.845852204608197
75 7 3 0.0 0.2563027357817034 8.883601199621951 4.339824286380195
76 7 3 0.0 0.612758449150065 8.651408425190127 4.365825405555147
77 7 1 0.0 0.23440947442040325 9.029502245827164 4.8803473085109985
78 7 2 0.0 0.05849888632740824 8.773408606093108 5.213463436369845
79 7 1 0.0 0.137724132656247 8.974572475754323 5.61761530070369
80 7 1 0.0 0.11837049389024701 8.978453392838288 6.102774055954983
81 7 1 0.0 0.6551267914921279 8.386532244849136 4.7992269701555434
82 7 1 0.0 0.7816828580621447 8.600678201450906 5.227343807136181
83 7 1 0.0 0.6664734849844445 8.486044284653419 5.644923471876008
84 7 1 0.0 0.7055372517736667 8.556785961850125 6.130038858656438
85 8 5 8.861242189860825 1.138593809860422 9.472251396330416 3.6589250685692747
86 8 6 -8.861242189860825 1.2377185286266397 9.411562065120519 4.090344542328106
87 8 3 0.0 1.1041882655619517 9.47156082326783 4.572059086245585
88 8 3 0.0 0.7711970903343077 9.732222372435997 4.518930447119316
89 8 1 0.0 1.0654002558684608 9.4296277184592 5.129435684835222
90 8 2 0.0 1.2363252857484466 9.729384992733184 5.426799187362833
91 8 1 0.0 1.1035469994974987 9.615579054634695 5.850474070629763
92 8 1 0.0 1.0808455747217267 9.702316094526877 6.3276846885667215
93 8 1 0.0 0.7179673405604852 10.07706768362721 4.890467374801305
94 8 1 0.0 0.5349406480376192 9.958892437490078 5.335096204102146
95 8 1 0.0 0.6246383655563132 10.141109486923721 5.734518508558407
96 8 1 0.0 0.5374890781278707 10.167083773300934 6.217837905445602
97 9 5 8.861242189860825 2.0270983727440175 1.1359142309480867 3.806689236780427
98 9 6 -8.861242189860825 1.838999670466372 1.060536913361724 4.204896224823685
99 9 3 0.0 1.8948931894015622 1.0242125882299091 4.70393083474541
100 9 3 0.0 2.32050269731894 1.029535221255088 4.725803983527703
101 9 1 0.0 1.801926538958426 0.9992810060383548 5.255897487492691
102 9 2 0.0 1.8066310721771044 0.6179130075544887 5.504958040480785
103 9 1 0.0 1.7637913436480308 0.7256012958232588 5.948410700622497
104 9 1 0.0 1.7525266574884624 0.6019247125399324 6.4178208115499995
105 9 1 0.0 2.511513919212186 0.737755725532762 5.097517344236991
106 9 1 0.0 2.500676875370775 0.8762250142372936 5.572772822256244
107 9 1 0.0 2.4765345921626207 0.6211316896852477 5.940375130274022
108 9 1 0.0 2.475570357805683 0.5831247415406988 6.43070343192949
109 10 5 8.861242189860825 2.1042551944198173 2.333185917156269 3.827787487893323
110 10 6 -8.861242189860825 2.0208180981443933 2.504662048643436 4.231849184205723
111 10 3 0.0 1.9725574923117561 2.4277901980798298 4.727067031693638
112 10 3 0.0 1.974715601147338 2.001607666554881 4.730810115834485
113 10 1 0.0 1.9353845995783026 2.4972982032851703 5.281790729482391
114 10 2 0.0 1.548309217131477 2.4847264356160856 5.521601990511663
115 10 1 0.0 1.6459271376475229 2.507826429657616 5.968837279176217
116 10 1 0.0 1.511446959256929 2.4999450383914628 6.435336591008106
117 10 1 0.0 1.6731901395444448 1.7970230284370996 5.087207233379363
118 10 1 0.0 1.8006414025131048 1.786570938080885 5.565543813828472
119 10 1 0.0 1.5372289964649304 1.79684858898186 5.9278905885642015
120 10 1 0.0 1.4878432350110196 1.7771648684523602 6.416808678811665
121 11 5 8.861242189860825 1.9645659255467807 2.9506288221107186 3.5130354138742534
122 11 6 -8.861242189860825 2.0272926841570293 2.785242437878569 3.9233333115003575
123 11 3 0.0 2.010213049587239 2.8590401732690105 4.421069450723916
124 11 3 0.0 1.9470641418003514 3.280514428583351 4.425747681392728
125 11 1 0.0 1.9966013394281648 2.785289252105187 4.976323528245424
126 11 2 0.0 2.34968307362452 2.847933100438146 5.257221871419717
127 11 1 0.0 2.2084911123687494 2.803077730036435 5.690967300652506
128 11 1 0.0 2.2891653087048267 2.821278013284158 6.169432624770266
129 11 1 0.0 2.176036798902935 3.5190065220887106 4.813670904695655
130 11 1 0.0 1.99735160091525 3.502581643151187 5.275147641046316
131 11 1 0.0 2.2187428994947216 3.5229108133023925 5.664197160624191
132 11 1 0.0 2.2115869545179856 3.540376625982956 6.155634887196327
133 12 5 8.861242189860825 1.5498110918286294 4.585519634471321 3.6448358455140424
134 12 6 -8.861242189860825 1.470565725532842 4.672012684592645 4.075963194835435
135 12 3 0.0 1.6465638745484887 4.691713928321649 4.547254608393507
136 12 3 0.0 2.0210846224124843 4.4968717958612645 4.488765539950512
137 12 1 0.0 1.7145561864084624 4.800471215157747 5.0926723067845785
138 12 2 0.0 1.6291567562847817 4.507088530134445 5.430501227124742
139 12 1 0.0 1.7650709607994854 4.689784084238424 5.828285006431086
140 12 1 0.0 1.8379484908426333 4.661302143885727 6.307499245927824
141 12 1 0.0 2.1689157449691385 4.211315357625058 4.884233444246689
142 12 1 0.0 2.3544702898711742 4.410344982504299 5.297894747860521
143 12 1 0.0 2.3315862317044025 4.258435583384503 5.718830331139482
144 12 1 0.0 2.4554810783288845 4.302424063222622 6.192731567560025
145 13 5 8.861242189860825 1.783243548767068 5.94234268088618 3.605989313811187
146 13 6 -8.861242189860825 1.9812273256945194 5.790045295711486 3.9764479453397628
147 13 3 0.0 1.9582525837876703 5.716757419668103 4.47402219348202
148 13 3 0.0 1.6088950412140424 5.944922732875346 4.560856032425154
149 13 1 0.0 2.0499331908907683 5.537111918854254 4.996758960840866
150 13 2 0.0 2.2684732339023346 5.772586334794141 5.319693770041428
151 13 1 0.0 2.241975642971419 5.545862791187028 5.717156452574711
152 13 1 0.0 2.3243400061665502 5.5114363674549365 6.194439990602539
153 13 1 0.0 1.6241029070921498 6.181651014464131 5.011987748284695
154 13 1 0.0 1.553761331796626 5.940202612242287 5.438501155659342
155 13 1 0.0 1.7227072079352972 6.028838321183872 5.843948948803756
156 13 1 0.0 1.7469522007685567 5.927374297631014 6.324557452168473
157 14 5 8.861242189860825 1.5485522054469474 7.381689035951395 3.7610881472856814
158 14 6 -8.861242189860825 1.437875249850264 7.376279031562255 4.193931087026984
159 14 3 0.0 1.5869932413090981 7.410054818060484 4.673620679184952
160 14 3 0.0 2.008912849897227 7.393896957722583 4.615543267674219
161 14 1 0.0 1.6005025660139243 7.471419472374337 5.230382248420104
162 14 2 0.0 1.641567765726671 7.130887190210343 5.530125899114937
163 14 1 0.0 1.687399157489578 7.3044793298988395 5.951845621353424
164 14 1 0.0 1.7624155024302788 7.251543794060481 6.428646438975548
165 14 1 0.0 2.258819834037352 7.148981507589799 4.986156685007108
166 14 1 0.0 2.3430249055055903 7.3557667667326205 5.4280936911076765
167 14 1 0.0 2.382120213795902 7.1589219436598 5.828731412033492
168 14 1 0.0 2.4737399721166 7.1930520215414155 6.3107150828445935
169 15 5 8.861242189860825 1.9547364359258521 9.008521092849591 3.6329789756879824
170 15 6 -8.861242189860825 1.755727505096555 8.924362240690114 4.024060041689538
171 15 3 0.0 1.784103686816296 8.92427593857644 4.52672679891337
172 15 3 0.0 2.2009245195825797 9.000912110615383 4.57186557156931
173 15 1 0.0 1.6606041985481759 8.913652083213723 5.07313926008622
174 15 2 0.0 1.710587681549849 8.552041125119139 5.345598446696013
175 15 1 0.0 1.6221062953276566 8.674547003912934 5.778317322538773
176 15 1 0.0 1.6003876822900598 8.575777163734164 6.253229380889227
177 15 1 0.0 2.411905584030354 8.764782431386523 4.971266558767237
178 15 1 0.0 2.347894133528159 8.92457103609247 5.43551766628514
179 15 1 0.0 2.3413529305671585 8.688849550625214 5.816541950133885
180 15 1 0.0 2.31457938549485 8.677261710751818 6.3074759584393005
181 16 5 8.861242189860825 1.7779470878464383 10.081679292336561 3.7102843477978404
182 16 6 -8.861242189860825 1.7469043110630071 9.828534557734356 4.0771436620918715
183 16 3 0.0 1.6918103553652115 9.805481111729875 4.577055933023339
184 16 3 0.0 1.7410836334452766 10.218372416403346 4.670560654197887
185 16 1 0.0 1.5947106389363326 9.631560445823318 5.100749368794953
186 16 2 0.0 1.9166237303855727 9.536531077262826 5.4087042723437015
187 16 1 0.0 1.719027765875149 9.449282725841368 5.812963881432831
188 16 1 0.0 1.7452832349931495 9.350321524740925 6.287606877447765
189 16 1 0.0 1.9776385092651658 10.302515897967004 5.114129193184932
190 16 1 0.0 1.7483291185700576 10.247088023483037 5.549449660071221
191 16 1 0.0 1.920385733388121 10.128114567590009 5.94571819152399
192 16 1 0.0 1.860789137640491 10.050568031682277 6.427695454269337
193 17 5 8.861242189860825 3.4245344028858096 0.6606040141330581 3.743416822261638
194 17 6 -8.861242189860825 3.399584973307071 0.4918557310687129 4.156373490760967
195 17 3 0.0 3.3231514127796657 0.573085214428449 4.647330480540299
196 17 3 0.0 3.3296028372070503 0.9992400851367962 4.648120153925543
197 17 1 0.0 3.2177338400334334 0.5088399619931792 5.193857012856936
198 17 2 0.0 3.5320387489546707 0.5161897301835334 5.523482932788443
199 17 1 0.0 3.324345803312055 0.4998985040217587 5.931748174803854
200 17 1 0.0 3.337029692701904 0.5101055611923244 6.417035283206442
201 17 1 0.0 3.536026016956382 1.2015384826903843 5.06794894373437
202 17 1 0.0 3.292377364400462 1.2197286079164325 5.4986035713338115
203 17 1 0.0 3.4556474253854175 1.2080543293919621 5.915728863466065
204 17 1 0.0 3.3806179578801983 1.2320198845338335 6.4011807482415986
205 18 5 8.861242189860825 3.1896457888783045 1.867172610649427 3.4821805439434548
206 18 6 -8.861242189860825 3.09538618498208 2.021797173141748 3.8906386677198324
207 18 3 0.0 3.17181163421061 1.9912055261645403 4.3873301069458455
208 18 3 0.0 3.391413913853887 1.626170480816751 4.4005389196502325
209 18 1 0.0 3.1924000567056185 2.099154889984857 4.936743083986053
210 18 2 0.0 2.909209633913823 1.9252136421079669 5.2482594859317055
211 18 1 0.0 3.0505137570140155 2.0471752333769904 5.666877195312802
212 18 1 0.0 3.01432559162043 2.0297244222263497 6.150772358053155
213 18 1 0.0 3.296816465333266 1.3434951930407815 4.813984669364848
214 18 1 0.0 3.485356416365849 1.4551248174615394 5.258000962576234
215 18 1 0.0 3.3144385431189023 1.3768614182214198 5.6647549814545215
216 18 1 0.0 3.359775501657304 1.3941424016399204 6.154155869338952
217 19 5 8.861242189860825 3.2439701163546673 2.9262895600761105 3.74918632164915
218 19 6 -8.861242189860825 3.1993176479738805 2.806751926183864 4.177378542833141
219 19 3 0.0 3.270569301293694 2.9207554902080557 4.662564562050456
220 19 3 0.0 3.520444698066081 3.2629529557133337 4.616592842708539
221 19 1 0.0 3.2448517773138046 2.9339720692756655 5.2221139330878295
222 19 2 0.0 3.5581273253109735 2.758729187788438 5.502547892283677
223 19 1 0.0 3.453946752416834 2.86962469429573 5.934902915875866
224 19 1 0.0 3.554746175746118 2.8738982637376456 6.40986592023367
225 19 1 0.0 3.875053181322426 3.309592189471728 4.979730542513976
226 19 1 0.0 3.765807312999912 3.469630287525568 5.435375253057879
227 19 1 0.0 3.962616659155781 3.36774042650076 5.824825440393257
228 19 1 0.0 4.001165245137523 3.434397991674639 6.310560014809564
229 20 5 8.861242189860825 2.9518003483600554 4.4333166152074455 3.6218684121611586
230 20 6 -8.861242189860825 3.1075159479712777 4.23038066117711 3.988203392378784
231 20 3 0.0 3.092089008911415 4.181817317189928 4.489085309727569
232 20 3 0.0 2.850167933518479 4.519821564437116 4.583306010283408
233 20 1 0.0 3.1485125128518705 3.9941451440667555 5.013992074085331
234 20 2 0.0 3.455323327877449 4.146010197129437 5.314489946618133
235 20 1 0.0 3.3768817445092774 3.952568602887658 5.722545750612337
236 20 1 0.0 3.4722204297076837 3.9030522920133586 6.196072215247547
237 20 1 0.0 2.9753464674106187 4.747101414720121 5.022015011616716
238 20 1 0.0 2.8526134172510598 4.555912564202872 5.461949525672265
239 20 1 0.0 3.067190711559933 4.589612359927012 5.853877860275354
240 20 1 0.0 3.0850568912220853 4.497731273583557 6.336688347792059
241 21 5 8.861242189860825 3.1464356788743273 6.4081135031755405 3.553594702952078
242 21 6 -8.861242189860825 3.2475654124760123 6.539678641030122 3.968438117524963
243 21 3 0.0 3.2923948565232144 6.420584856638249 4.455558303331926
244 21 3 0.0 3.10832264001829 6.036229013115017 4.449375832130641
245 21 1 0.0 3.4254497529350796 6.41998726625811 4.999826256693864
246 21 2 0.0 3.1432461082158096 6.535593065378839 5.3381918046918075
247 21 1 0.0 3.3464819184638444 6.45249979895132 5.740526225372779
248 21 1 0.0 3.339974945404376 6.435284278108154 6.225737445143698
249 21 1 0.0 2.8442836555252113 5.927264049667099 4.8715149501374615
250 21 1 0.0 3.0661795836551495 5.797226560444718 5.294612342349894
251 21 1 0.0 2.9307667330875766 5.864639037861879 5.7164011861084285
252 21 1 0.0 2.9981649722402754 5.7982883645633825 6.199021499368701
253 22 5 8.861242189860825 3.507458138522866 7.383405342371412 3.7372169883504993
254 22 6 -8.861242189860825 3.35653537307501 7.534113782253061 4.129824874350697
255 22 3 0.0 3.399288332979661 7.537088273696923 4.631464606404499
256 22 3 0.0 3.67858632923619 7.218583964378645 4.678345866225676
257 22 1 0.0 3.3586518999866892 7.668153135248452 5.1746977515736
258 22 2 0.0 3.0880606130761454 7.458041868705286 5.474911763696375
259 22 1 0.0 3.173297877343866 7.619651971785141 5.895267630694965
260 22 1 0.0 3.1041936379283923 7.614676338669527 6.375859442753587
261 22 1 0.0 3.6046194948295924 6.939670154612986 5.09849747894755
262 22 1 0.0 3.7361122789461443 7.100652987739551 5.547889434799778
263 22 1 0.0 3.551465040581114 7.0085604076531425 5.9456472316896845
264 22 1 0.0 3.5557652961614896 7.052676248579426 6.435445763374705
265 23 5 8.861242189860825 3.106979871946891 8.576595975628448 3.713398157488712
266 23 6 -8.861242189860825 2.930302234111472 8.628662438215256 4.120467884801032
267 23 3 0.0 3.001521819386402 8.740692403406177 4.606118110300369
268 23 3 0.0 3.4276332805146206 8.739573235951905 4.614949217197588
269 23 1 0.0 2.9259453441304943 8.883773814873852 5.142539095824368
270 23 2 0.0 2.930624786259888 8.593732893265448 5.493750155685868
271 23 1 0.0 2.9044369885290022 8.829618638353228 5.885865427094483
272 23 1 0.0 2.9057409595096835 8.851483655693988 6.370931261104932
273 23 1 0.0 3.6243433357405275 8.565932890420546 5.051922406443438
274 23 1 0.0 3.6318144706045143 8.839693400688017 5.464424915505877
275 23 1 0.0 3.614175677807285 8.706261961395233 5.891826173022077
276 23 1 0.0 3.628262839029318 8.815794600430145 6.371066670198854
277 24 5 8.861242189860825 3.6339695927799696 9.991422803535942 3.7686865231037254
278 24 6 -8.861242189860825 3.785890559699093 9.952403508502595 4.187051413548649
279 24 3 0.0 3.686156298081796 9.852780676083542 4.67038096186473
280 24 3 0.0 3.2603122273786243 9.849333420531748 4.653200677648272
281 24 1 0.0 3.7301264460597032 9.725151184512955 5.214172196253867
282 24 2 0.0 3.7011734999804458 10.024532804479824 5.556264602621614
283 24 1 0.0 3.7055739146541904 9.799671066574843 5.955639247203005
284 24 1 0.0 3.6747910713984937 9.79094693068498 6.4401440961590835
285 24 1 0.0 3.03556556101111 10.032523395953541 5.072392462401469
286 24 1 0.0 3.005487412512148 9.76997617205133 5.491108613302034
287 24 1 0.0 2.9956496978428464 9.91513237427955 5.914924383719183
288 24 1 0.0 2.95330645998704 9.818476361704791 6.395270057896152
289 25 5 8.861242189860825 4.549840739461277 0.4966224305761299 3.5178884221240336
290 25 6 -8.861242189860825 4.570555905654247 0.3908141919097499 3.9514863529902327
291 25 3 0.0 4.430589052418476 0.49453349387163853 4.423853445780135
292 25 3 0.0 4.250918661555543 0.8757014680549033 4.359980568955676
293 25 1 0.0 4.323822974878661 0.46375250072075214 4.973021091201489
294 25 2 0.0 4.578490518661669 0.6528027402562743 5.2999756614864495
295 25 1 0.0 4.369227284533421 0.6010606380425688 5.704467843435811
296 25 1 0.0 4.3405499777839855 0.6803059967931117 6.182658629463709
297 25 1 0.0 4.3173378513908505 1.2021848631103267 4.745711650821819
298 25 1 0.0 4.059163030086992 1.1681635798053245 5.166837841823838
299 25 1 0.0 4.180145256101643 1.2853473392557349 5.5820705217023905
300 25 1 0.0 4.066755625072191 1.338131002660711 6.057700606655022
301 26 5 8.861242189860825 4.181817210661354 1.7944413424912253 3.6259526935629243
302 26 6 -8.861242189860825 4.04041729059347 1.7902161543199382 4.049768546878071
303 26 3 0.0 4.136522218584739 1.8920064458898525 4.53338168081146
304 26 3 0.0 4.552873267563177 1.9782069238285112 4.503860503542469
305 26 1 0.0 4.088494587620643 1.991596994951233 5.082659968050139
306 26 2 0.0 4.18672898901479 1.6928605724861485 5.412207224495444
307 26 1 0.0 4.153624483109538 1.899982212634565 5.8197449398402465
308 26 1 0.0 4.199609343822576 1.8992728668651282 6.303122154923523
309 26 1 0.0 4.823588629368877 1.8288242285963103 4.909063399374286
310 26 1 0.0 4.817756850439473 2.07895684493207 5.3363321899738505
311 26 1 0.0 4.870568643062623 1.925202765875829 5.753893573081787
312 26 1 0.0 4.910851448031927 2.013088378016107 6.236097592208573
313 27 5 8.861242189860825 4.340676653751033 3.6923630123526197 3.574336943036597
314 27 6 -8.861242189860825 4.559539203364084 3.6904829125771794 3.9638588509355532
315 27 3 0.0 4.577687427537466 3.537329121801656 4.443122496839777
316 27 3 0.0 4.183332756274558 3.3798701485135645 4.479746031265458
317 27 1 0.0 4.747693979690426 3.40744944374359 4.960964759582809
318 27 2 0.0 4.668369229371097 3.658200758840981 5.332887068565258
319 27 1 0.0 4.813784506886429 3.4307111756587454 5.7032722169799515
320 27 1 0.0 4.863642519835523 3.3871458878542726 6.1842970467872735
321 27 1 0.0 3.976342076205298 3.4473935293521563 4.940600493050859
322 27 1 0.0 4.106251261844391 3.171331666099043 5.330565114477822
323 27 1 0.0 4.111691619815299 3.2815340012792844 5.76486081875716
324 27 1 0.0 4.181281376767008 3.1521930536807186 6.234217278456182
325 28 5 8.861242189860825 5.087885149292333 4.370900980032229 3.43694669613519
326 28 6 -8.861242189860825 5.0776475734031665 4.202731093909623 3.850765193272469
327 28 3 0.0 4.9134077297539305 4.244011054171943 4.324896317112473
328 28 3 0.0 4.753810495753285 4.638845501634884 4.308023253205078
329 28 1 0.0 4.772045798754234 4.139635743545252 4.856924668448984
330 28 2 0.0 5.013776856480758 4.266654896614465 5.221516320080131
331 28 1 0.0 4.77819222692448 4.167527019221894 5.601984213335181
332 28 1 0.0 4.723575975428776 4.1782583830759785 6.084343566463398
333 28 1 0.0 4.809858642745141 4.902544705388141 4.740588530014944
334 28 1 0.0 4.5252059340076105 4.820956031349753 5.137419827291144
335 28 1 0.0 4.625256074409411 4.8708427217439585 5.571341707883272
336 28 1 0.0 4.485226858451733 4.8599942675619285 6.042660528831079
337 29 5 8.861242189860825 4.731395758980787 5.999435341226017 3.4513545855637746
338 29 6 -8.861242189860825 4.815794734494281 6.21522965302999 3.8333772224020324
339 29 3 0.0 4.835404522906671 6.2020887299308605 4.33629059097906
340 29 3 0.0 4.64389378862853 5.827149848768421 4.402583066710106
341 29 1 0.0 4.9429186015006445 6.315973019188607 4.874252168784181
342 29 2 0.0 4.647714867222742 6.5038630555102666 5.165880239234468
343 29 1 0.0 4.830220947084772 6.5062104282064945 5.586318453734866
344 29 1 0.0 4.800761504193063 6.592732615064627 6.0631986221772936
345 29 1 0.0 4.358274054768379 5.813270125082181 4.824507354281903
346 29 1 0.0 4.557475770260238 5.773977752627743 5.276097589819464
347 29 1 0.0 4.403986688407635 5.9310187918795485 5.666694728406364
348 29 1 0.0 4.44743867481225 5.968218226657212 6.155157038302643
349 30 5 8.861242189860825 4.665120809579544 6.894018930571072 3.443118294755548
350 30 6 -8.861242189860825 4.76129443171986 6.794932536241821 3.868046745197235
351 30 3 0.0 4.621364544700798 6.805602822353027 4.351559780872703
352 30 3 0.0 4.282525050218356 7.0621018384318885 4.319213683440323
353 30 1 0.0 4.577913017133826 6.709897207103718 4.901908731623111
354 30 2 0.0 4.738227820750446 6.983992894349904 5.228505669651528
355 30 1 0.0 4.603990452154248 6.827239168165877 5.637762153726312
356 30 1 0.0 4.574226816687713 6.867596956679024 6.120725938660572
357 30 1 0.0 4.216877909171546 7.368649658669368 4.7210970873312395
358 30 1 0.0 4.03230444886712 7.204352145720578 5.150163422308665
359 30 1 0.0 4.113311309277443 7.349819673109257 5.566173035143997
360 30 1 0.0 4.020579476982528 7.327585807813202 6.048639369485283
361 31 5 8.861242189860825 4.2170458986272505 8.46675699450305 3.5251849250396465
362 31 6 -8.861242189860825 4.085916615798292 8.432630745603827 3.9509456294880074
363 31 3 0.0 4.140287127856683 8.583320784088894 4.428245790471478
364 31 3 0.0 4.500313091571175 8.80795645170324 4.388618267503792
365 31 1 0.0 4.06035439591955 8.684627742008043 4.973478975698185
366 31 2 0.0 4.256660428678767 8.454178665062445 5.313849371579482
367 31 1 0.0 4.153188632159861 8.654936664964398 5.712687790438523
368 31 1 0.0 4.196397991705441 8.692182013312182 6.1948852374682595
369 31 1 0.0 4.806048816938157 8.78091814997803 4.795540840012445
370 31 1 0.0 4.713103514124092 9.03234572015193 5.211839173497121
371 31 1 0.0 4.81618398829067 8.92573861842244 5.634682232605282
372 31 1 0.0 4.823105467693613 9.043870680560191 6.11203347674051
373 32 5 8.861242189860825 4.6993882748258695 9.407153628752576 3.4933720492979754
374 32 6 -8.861242189860825 4.923234021699191 9.512154974809102 3.865527213261309
375 32 3 0.0 4.947251559581872 9.497768709670229 4.368215264844373
376 32 3 0.0 4.553105177573874 9.35875212896996 4.451721181581193
377 32 1 0.0 5.12365402523819 9.515623811438976 4.899717788903692
378 32 2 0.0 5.049585671288768 9.860072647611798 5.188445550224877
379 32 1 0.0 5.199320959396173 9.743399219726054 5.6056372642823895
380 32 1 0.0 5.255273946160091 9.83462281997421 6.079257534834488
381 32 1 0.0 4.3521804682059475 9.552495552330443 4.878199939097781
382 32 1 0.0 4.486571386558753 9.394665223260812 5.327852719708476
383 32 1 0.0 4.497798645517053 9.620911803953629 5.714470546910751
384 32 1 0.0 4.573170773695216 9.62638225678059 6.2004298226728825
385 33 5 8.861242189860825 5.514753063814056 0.6231347915693906 3.722691868915108
386 33 6 -8.861242189860825 5.457484705814674 0.3899185268552213 4.099470552197959
387 33 3 0.0 5.471185775267765 0.38076742750994763 4.6026679508712665
388 33 3 0.0 5.663890663863168 0.7543938193912174 4.672798996000101
389 33 1 0.0 5.400444513491294 0.24227351395230243 5.1409491760872195
390 33 2 0.0 5.715728504984506 0.0448236850980841 5.403826356056649
391 33 1 0.0 5.561539741728076 0.02213713505168924 5.8348639614809406
392 33 1 0.0 5.623211557883799 10.440130067508486 6.30444115651189
393 33 1 0.0 5.976761948741563 0.7526899284349837 5.075167035731229
394 33 1 0.0 5.807673118197339 0.7700607823296779 5.540211308506439
395 33 1 0.0 5.987895940060662 0.5976198078333731 5.912462239632074
396 33 1 0.0 5.977222079348514 0.5385675421666188 6.400587428366085
397 34 5 8.861242189860825 5.785284037553148 2.184245501904656 3.6517707581826016
398 34 6 -8.861242189860825 5.913131193397049 1.9935405973970413 4.035070133698529
399 34 3 0.0 5.866493232225847 1.9672033298553815 4.535680094517531
400 34 3 0.0 5.628921162876487 2.3150125886390995 4.600783471227414
401 34 1 0.0 5.886228674197123 1.8011550089101147 5.070441756448977
402 34 2 0.0 6.178685984747423 1.958106138664281 5.382419169621321
403 34 1 0.0 6.070660641436333 1.784637848873132 5.792689262605099
404 34 1 0.0 6.136153265977844 1.7533495048118934 6.272793832781693
405 34 1 0.0 5.734001317330115 2.5578990284243686 5.036393069435899
406 34 1 0.0 5.579941514788249 2.389190081554691 5.475667270030191
407 34 1 0.0 5.7716080175591875 2.4344401835121294 5.87816359413504
408 34 1 0.0 5.758058643690421 2.3632098530603667 6.364589288101743
409 35 5 8.861242189860825 5.797562513237014 2.9248576605036316 3.6877965699689734
410 35 6 -8.861242189860825 5.556342476570969 2.980981606870933 4.059676474893299
411 35 3 0.0 5.5473298572360195 3.0937833026217394 4.550261466595487
412 35 3 0.0 5.9659539503526045 3.0865571909981657 4.629960088056377
413 35 1 0.0 5.385592135825901 3.2399374996780055 5.06641205294227
414 35 2 0.0 5.327406388711489 2.951170494068824 5.413864031292338
415 35 1 0.0 5.2397739185536425 3.188869155126836 5.795835454651108
416 35 1 0.0 5.1605904111017304 3.212521150403391 6.274311366181597
417 35 1 0.0 6.084536359395223 2.911730529273233 5.0938191551863445
418 35 1 0.0 6.027254801571037 3.186890754821562 5.501452112919518
419 35 1 0.0 5.936697068632234 3.0553214909627138 5.920111564911398
420 35 1 0.0 5.872387058391775 3.1664254844546513 6.394861421649141
421 36 5 8.861242189860825 5.751034274424756 4.59266723127313 3.684820957833085
422 36 6 -8.861242189860825 5.543634483782511 4.601638522217037 4.080467908929497
423 36 3 0.0 5.5807400272790675 4.600152126407995 4.582563570356972
424 36 3 0.0 5.994849872189098 4.5067158523216655 4.620417464781458
425 36 1 0.0 5.475146539796315 4.649852649629172 5.130570359569476