Lipid soup setup

3072 atoms
1408 bonds
1024 angles
0 dihedrals
0 impropers

6 atom types
2 bond types
3 angle types
0 dihedral types
0 improper types

0 10.373608390765556 xlo xhi
0 10.373608390765556 ylo yhi
0 9.515689411764704 zlo zhi

Masses

1 1
2 1
3 1
4 1
5 1
6 1

Atoms

1 1 5 8.861242189860825 0.5408848083618862 0.66550766871205 1.5516252918149884
2 1 6 -8.861242189860825 0.677021636326583 0.4804961261382251 1.9348604158807474
3 1 3 0.0 0.6321014463879296 0.45248614150250577 2.4355366598264245
4 1 3 0.0 0.38029672788416824 0.7901106148967143 2.5007617853086392
5 1 1 0.0 0.6593667112118993 0.2876738187106427 2.9703497778594965
6 1 2 0.0 0.9453792850435211 0.4568491954150282 3.281912518703571
7 1 1 0.0 0.8451610714676533 0.2792293394551675 3.6923875703131936
8 1 1 0.0 0.9124566523147202 0.2509417511061481 4.172428984976277
9 1 1 0.0 0.475651958683785 1.0373887145403975 2.9361378353374383
10 1 1 0.0 0.32927428903871886 0.8626174690225861 3.37566888587915
11 1 1 0.0 0.5193500005133579 0.9160282645578548 3.777919332438524
12 1 1 0.0 0.50934667168401 0.8445380806046574 4.2643927523395115
13 2 5 8.861242189860825 0.6234443339941919 2.122671605818347 1.8867891895298732
14 2 6 -8.861242189860825 0.4728996956395155 1.9643844873866323 2.2765495866109227
15 2 3 0.0 0.45588744417196236 2.008494003619408 2.777792060701741
16 2 3 0.0 0.7562367967455261 2.3062322070340855 2.830635668883688
17 2 1 0.0 0.3149938535878805 1.9619412820102131 3.3180821752451486
18 2 2 0.0 0.5337152681776104 1.705170495668112 3.624226827388964
19 2 1 0.0 0.35775137361357456 1.7820775916123344 4.040405007932762
20 2 1 0.0 0.35574158392612326 1.7149263310513494 4.5212951321798345
21 2 1 0.0 1.0292927663859321 2.250183193763307 3.2573561032409244
22 2 1 0.0 0.8505648052389215 2.373395086389797 3.7023663281127797
23 2 1 0.0 0.9442028068522557 2.195773058951995 4.102952462361411
24 2 1 0.0 0.8886670786822725 2.1990335568960826 4.591595945188388
25 3 5 8.861242189860825 0.4029216147114083 3.062485105416058 1.640125748752267
26 3 6 -8.861242189860825 0.5412823679774299 3.2232754276240208 2.0333616084744595
27 3 3 0.0 0.6249460236959593 3.1412990909280594 2.523013890087331
28 3 3 0.0 0.433791970144091 2.7624414426770354 2.562728225811835
29 3 1 0.0 0.8035777536990572 3.1796153288403852 3.0526875052302542
30 3 2 0.0 0.5532731004552677 3.3283243454240026 3.4030131407557906
31 3 1 0.0 0.7882452684386624 3.271601269975485 3.7924394425669394
32 3 1 0.0 0.822526753292659 3.2923216852253367 4.276344481635516
33 3 1 0.0 0.20444021561486964 2.6933804851715313 3.0126390396246503
34 3 1 0.0 0.45887460964963644 2.5910087374540534 3.4248794054578595
35 3 1 0.0 0.3609623667060396 2.6944291361892185 3.8497374108393396
36 3 1 0.0 0.4677238627167897 2.664094298134664 4.3288502178370685
37 4 5 8.861242189860825 0.8124075732600022 4.686263907781409 1.5717082252376393
38 4 6 -8.861242189860825 0.9904105354482108 4.675616230487305 1.981382778452746
39 4 3 0.0 0.9593527036650475 4.512638125857748 2.456727529608426
40 4 3 0.0 0.5630669862485187 4.355926437297354 2.449706480551284
41 4 1 0.0 1.0754654507137213 4.371578277445412 2.9863986698161273
42 4 2 0.0 0.9590352400914992 4.614972152722943 3.3534112983277122
43 4 1 0.0 1.0655630519702672 4.379426723286819 3.7318983489985866
44 4 1 0.0 1.0660459469688663 4.325860010362964 4.214494470747234
45 4 1 0.0 0.3102748738796236 4.414788351201629 2.8883667210091084
46 4 1 0.0 0.39930317830152057 4.130338619626383 3.283741563455363
47 4 1 0.0 0.36061114289661145 4.2316255493835255 3.7185182822273246
48 4 1 0.0 0.38177502814502356 4.09246689176 4.189744617685247
49 5 5 8.861242189860825 0.4475000818044968 5.603361075564125 1.9140173081199483
50 5 6 -8.861242189860825 0.4139048479992966 5.77769265470821 2.324031366306051
51 5 3 0.0 0.5830988678662823 5.79076324125157 2.7980373023064686
52 5 3 0.0 0.8391231788662505 5.450150023837022 2.7888499964365625
53 5 1 0.0 0.6926104294602012 5.939923015809586 3.3268947000625086
54 5 2 0.0 0.4917068020052864 5.763057825648149 3.6954747849012675
55 5 1 0.0 0.6936508179328008 5.928053470576417 4.072406241724965
56 5 1 0.0 0.7490488204934957 5.942552445699024 4.554577874736035
57 5 1 0.0 0.852849745934759 5.190653888022879 3.2273300078361253
58 5 1 0.0 1.106720528232795 5.351724516599862 3.6207316261933293
59 5 1 0.0 1.0227947949329326 5.287442662485207 4.056175337195312
60 5 1 0.0 1.1551549444476041 5.344560907396219 4.526372740610338
61 6 5 8.861242189860825 0.9668501561322759 6.8396108766723565 1.8274597315686028
62 6 6 -8.861242189860825 0.94905517264096 7.079596933226119 2.203919156146938
63 6 3 0.0 0.8853586900320709 7.087180141487299 2.703283088575675
64 6 3 0.0 0.7494110859255472 6.687401433713058 2.761122971335754
65 6 1 0.0 0.8803875352833608 7.236119856747351 3.2433977212870526
66 6 2 0.0 0.5134664747720343 7.380347847372765 3.471568850110421
67 6 1 0.0 0.6194862230509547 7.428346687220772 3.9148951361634614
68 6 1 0.0 0.4961753851450993 7.524736756749011 4.374538513575971
69 6 1 0.0 0.4028403537232575 6.6390676722642095 3.1317224298187547
70 6 1 0.0 0.5266451848843692 6.650000400894948 3.6110050124844757
71 6 1 0.0 0.28580550785341086 6.791573022679358 3.961348206593093
72 6 1 0.0 0.23948071417610306 6.852321049089057 4.447178415655451
73 7 5 8.861242189860825 0.30615770659505226 8.590919020976953 1.5818134439940645
74 7 6 -8.861242189860825 0.15889940990532017 8.718865533569284 1.9837790533476916
75 7 3 0.0 0.2468372639362768 8.760550065631406 2.4777511351196893
76 7 3 0.0 0.6032929773046385 8.528357291199582 2.5037522542946418
77 7 1 0.0 0.22494400257497668 8.906451111836619 3.018274157250493
78 7 2 0.0 0.049033414481981674 8.650357472102563 3.3513902851093396
79 7 1 0.0 0.12825866081082044 8.851521341763778 3.7555421494431847
80 7 1 0.0 0.10890502204482044 8.855402258847743 4.240700904694478
81 7 1 0.0 0.6456613196467014 8.26348111085859 2.9371538188950375
82 7 1 0.0 0.7722173862167181 8.47762706746036 3.3652706558756753
83 7 1 0.0 0.6570080131390179 8.362993150662874 3.7828503206155024
84 7 1 0.0 0.6960717799282401 8.43373482785958 4.267965707395933
85 8 5 8.861242189860825 1.1291283380149952 9.330269318649018 1.7968519173087696
86 8 6 -8.861242189860825 1.228253056781213 9.269579987439121 2.228271391067601
87 8 3 0.0 1.0947227937165254 9.329578745586431 2.70998593498508
88 8 3 0.0 0.7617316184888812 9.590240294754599 2.6568572958588113
89 8 1 0.0 1.0559347840230342 9.287645640777802 3.267362533574717
90 8 2 0.0 1.2268598139030198 9.587402915051786 3.5647260361023276
91 8 1 0.0 1.0940815276520721 9.473596976953297 3.988400919369258
92 8 1 0.0 1.0713801028763001 9.560334016845479 4.465611537306216
93 8 1 0.0 0.7085018687150586 9.935085605945812 3.0283942235407992
94 8 1 0.0 0.5254751761921926 9.81691035980868 3.4730230528416413
95 8 1 0.0 0.6151728937108867 9.999127409242323 3.8724453572979023
96 8 1 0.0 0.5280236062824442 10.025101695619536 4.355764754185097
97 9 5 8.861242189860825 1.9987019572077376 1.1264487591026602 1.944616085519922
98 9 6 -8.861242189860825 1.810603254930092 1.0510714415162974 2.34282307356318
99 9 3 0.0 1.8664967738652822 1.0147471163844826 2.841857683484906
100 9 3 0.0 2.2921062817826603 1.0200697494096613 2.8637308322671977
101 9 1 0.0 1.773530123422146 0.9898155341929282 3.393824336232186
102 9 2 0.0 1.7782346566408245 0.6084475357090622 3.642884889220281
103 9 1 0.0 1.735394928111751 0.7161358239778323 4.086337549361992
104 9 1 0.0 1.7241302419521825 0.5924592406945058 4.555747660289495
105 9 1 0.0 2.483117503675906 0.7282902536873355 3.235444192976486
106 9 1 0.0 2.472280459834495 0.866759542391867 3.710699670995739
107 9 1 0.0 2.448138176626341 0.6116662178398211 4.078301979013518
108 9 1 0.0 2.447173942269403 0.5736592696952723 4.568630280668986
109 10 5 8.861242189860825 2.0758587788835374 2.3047895016199895 1.9657143366328178
110 10 6 -8.861242189860825 1.9924216826081136 2.4762656331071566 2.3697760329452184
111 10 3 0.0 1.9441610767754767 2.3993937825435507 2.8649938804331323
112 10 3 0.0 1.9463191856110584 1.9732112510186015 2.86873696457398
113 10 1 0.0 1.906988184042023 2.468901787748891 3.419717578221886
114 10 2 0.0 1.5199128015951975 2.456330020079806 3.6595288392511582
115 10 1 0.0 1.6175307221112434 2.479430014121336 4.106764127915712
116 10 1 0.0 1.4830505437206496 2.4715486228551833 4.573263439747601
117 10 1 0.0 1.6447937240081654 1.7686266129008201 3.225134082118858
118 10 1 0.0 1.7722449869768253 1.7581745225446055 3.703470662567967
119 10 1 0.0 1.508832580928651 1.7684521734455805 4.065817437303696
120 10 1 0.0 1.45944681947474 1.7487684529160807 4.55473552755116
121 11 5 8.861242189860825 1.9361695100105012 2.903301462883585 1.650962262613749
122 11 6 -8.861242189860825 1.99889626862075 2.7379150786514357 2.061260160239853
123 11 3 0.0 1.9818166340509595 2.811712814041877 2.558996299463412
124 11 3 0.0 1.918667726264072 3.2331870693562177 2.5636745301322237
125 11 1 0.0 1.9682049238918853 2.7379618928780536 3.114250376984919
126 11 2 0.0 2.3212866580882405 2.8006057412110126 3.395148720159212
127 11 1 0.0 2.18009469683247 2.7557503708093014 3.828894149392002
128 11 1 0.0 2.2607688931685472 2.7739506540570247 4.307359473509761
129 11 1 0.0 2.1476403833666557 3.471679162861577 2.9515977534351503
130 11 1 0.0 1.9689551853789706 3.4552542839240536 3.4130744897858114
131 11 1 0.0 2.190346483958442 3.475583454075259 3.802124009363686
132 11 1 0.0 2.183190538981706 3.4930492667558224 4.293561735935822
133 12 5 8.861242189860825 1.52141467629235 4.519261331553335 1.782762694253537
134 12 6 -8.861242189860825 1.4421693099965625 4.605754381674659 2.2138900435749296
135 12 3 0.0 1.6181674590122093 4.625455625403663 2.6851814571330017
136 12 3 0.0 1.9926882068762048 4.430613492943278 2.6266923886900067
137 12 1 0.0 1.686159770872183 4.7342129122397605 3.2305991555240734
138 12 2 0.0 1.6007603407485023 4.440830227216459 3.568428075864236
139 12 1 0.0 1.736674545263206 4.623525781320438 3.96621185517058
140 12 1 0.0 1.8095520753063539 4.595043840967741 4.445426094667319
141 12 1 0.0 2.140519329432859 4.145057054707072 3.0221602929861833
142 12 1 0.0 2.3260738743348948 4.3440866795863124 3.435821596600016
143 12 1 0.0 2.303189816168123 4.192177280466517 3.856757179878976
144 12 1 0.0 2.4270846627926055 4.236165760304636 4.33065841629952
145 13 5 8.861242189860825 1.7548471332307884 5.8571534342773415 1.743916162550682
146 13 6 -8.861242189860825 1.95283091015824 5.704856049102647 2.1143747940792577
147 13 3 0.0 1.9298561682513908 5.631568173059264 2.6119490422215152
148 13 3 0.0 1.580498625677763 5.859733486266507 2.6987828811646493
149 13 1 0.0 2.021536775354489 5.4519226722454155 3.1346858095803607
150 13 2 0.0 2.240076818366055 5.687397088185302 3.4576206187809224
151 13 1 0.0 2.2135792274351394 5.4606735445781895 3.855083301314206
152 13 1 0.0 2.2959435906302708 5.426247120846098 4.332366839342034
153 13 1 0.0 1.5957064915558703 6.096461767855292 3.14991459702419
154 13 1 0.0 1.5253649162603464 5.855013365633448 3.5764280043988363
155 13 1 0.0 1.6943107923990177 5.943649074575033 3.9818757975432506
156 13 1 0.0 1.7185557852322773 5.842185051022176 4.462484300907968
157 14 5 8.861242189860825 1.520155789910668 7.277568845651703 1.8990149960251763
158 14 6 -8.861242189860825 1.4094788343139846 7.272158841262563 2.331857935766479
159 14 3 0.0 1.5585968257728187 7.3059346277607915 2.8115475279244477
160 14 3 0.0 1.9805164343609474 7.28977676742289 2.7534701164137148
161 14 1 0.0 1.5721061504776448 7.367299282074645 3.3683090971595986
162 14 2 0.0 1.6131713501903915 7.026766999910651 3.6680527478544316
163 14 1 0.0 1.6590027419532984 7.200359139599147 4.089772470092919
164 14 1 0.0 1.7340190868939993 7.147423603760789 4.566573287715043
165 14 1 0.0 2.2304234185010725 7.044861317290106 3.1240835337466035
166 14 1 0.0 2.314628489969311 7.251646576432928 3.5660205398471714
167 14 1 0.0 2.3537237982596224 7.054801753360108 3.9666582607729874
168 14 1 0.0 2.44534355658032 7.088931831241723 4.448641931584088
169 15 5 8.861242189860825 1.9263400203895726 8.885469958859046 1.7709058244274771
170 15 6 -8.861242189860825 1.7273310895602756 8.801311106699568 2.1619868904290325
171 15 3 0.0 1.7557072712800166 8.801224804585894 2.664653647652864
172 15 3 0.0 2.1725281040463003 8.877860976624838 2.7097924203088044
173 15 1 0.0 1.6322077830118964 8.790600949223178 3.2110661088257144
174 15 2 0.0 1.6821912660135696 8.428989991128594 3.483525295435508
175 15 1 0.0 1.5937098797913771 8.55149586992239 3.9162441712782674
176 15 1 0.0 1.5719912667537803 8.45272602974362 4.391156229628722
177 15 1 0.0 2.383509168494075 8.641731297395978 3.109193407506731
178 15 1 0.0 2.3194977179918794 8.801519902101925 3.5734445150246343
179 15 1 0.0 2.312956515030879 8.565798416634669 3.9544687988733793
180 15 1 0.0 2.2861829699585705 8.554210576761273 4.445402807178795
181 16 5 8.861242189860825 1.7495506723101588 9.939697214655164 1.8482111965373353
182 16 6 -8.861242189860825 1.7185078955267277 9.686552480052958 2.2150705108313664
183 16 3 0.0 1.663413939828932 9.663499034048478 2.714982781762834
184 16 3 0.0 1.7126872179089971 10.076390338721948 2.8084875029373815
185 16 1 0.0 1.566314223400053 9.48957836814192 3.238676217534448
186 16 2 0.0 1.8882273148492932 9.394548999581428 3.5466311210831964
187 16 1 0.0 1.6906313503388695 9.30730064815997 3.9508907301723255
188 16 1 0.0 1.71688681945687 9.208339447059528 4.42553372618726
189 16 1 0.0 1.9492420937288863 10.160533820285606 3.252056041924427
190 16 1 0.0 1.719932703033778 10.10510594580164 3.6873765088107158
191 16 1 0.0 1.8919893178518414 9.986132489908611 4.083645040263485
192 16 1 0.0 1.8323927221042116 9.908585954000879 4.565622303008832
193 17 5 8.861242189860825 3.377207043658677 0.6511385422876316 1.881343671001133
194 17 6 -8.861242189860825 3.3522576140799383 0.4823902592232863 2.294300339500462
195 17 3 0.0 3.275824053552533 0.5636197425830224 2.785257329279794
196 17 3 0.0 3.2822754779799177 0.9897746132913696 2.7860470026650384
197 17 1 0.0 3.170406480806301 0.49937449014775265 3.3317838615964313
198 17 2 0.0 3.484711389727538 0.5067242583381069 3.661409781527938
199 17 1 0.0 3.2770184440849226 0.49043303217633216 4.069675023543349
200 17 1 0.0 3.2897023334747715 0.5006400893468979 4.554962131945937
201 17 1 0.0 3.4886986577292496 1.1920730108449578 3.2058757924738654
202 17 1 0.0 3.2450500051733293 1.2102631360710059 3.6365304200733064
203 17 1 0.0 3.408320066158285 1.1985888575465355 4.05365571220556
204 17 1 0.0 3.3332905986530657 1.222554412688407 4.5391075969810935
205 18 5 8.861242189860825 3.1423184296511715 1.8387761951131476 1.6201073926829497
206 18 6 -8.861242189860825 3.048058825754947 1.9934007576054684 2.0285655164593273
207 18 3 0.0 3.124484274983477 1.9628091106282608 2.5252569556853404
208 18 3 0.0 3.3440865546267537 1.5977740652804715 2.5384657683897274
209 18 1 0.0 3.1450726974784855 2.0707584744485774 3.0746699327255476
210 18 2 0.0 2.86188227468669 1.8968172265716874 3.386186334671201
211 18 1 0.0 3.0031863977868825 2.018778817840711 3.8048040440522968
212 18 1 0.0 2.966998232393297 2.0013280066900703 4.28869920679265
213 18 1 0.0 3.249489106106133 1.315098777504502 2.9519115181043425
214 18 1 0.0 3.4380290571387158 1.42672840192526 3.3959278113157287
215 18 1 0.0 3.2671111838917692 1.3484650026851404 3.802681830194017
216 18 1 0.0 3.312448142430171 1.365745986103641 4.292082718078447
217 19 5 8.861242189860825 3.196642757127534 2.8789622008489775 1.887113170388645
218 19 6 -8.861242189860825 3.1519902887467475 2.759424566956731 2.3153053915726356
219 19 3 0.0 3.2232419420665606 2.8734281309809226 2.80049141078995
220 19 3 0.0 3.473117338838948 3.2156255964862006 2.754519691448034
221 19 1 0.0 3.1975244180866715 2.8866447100485324 3.360040781827324
222 19 2 0.0 3.5107999660838405 2.711401828561305 3.6404747410231715
223 19 1 0.0 3.406619393189701 2.822297335068597 4.072829764615361
224 19 1 0.0 3.507418816518985 2.8265709045105125 4.5477927689731645
225 19 1 0.0 3.8277258220952928 3.262264830244595 3.1176573912534704
226 19 1 0.0 3.718479953772779 3.4223029282984347 3.573302101797374
227 19 1 0.0 3.9152892999286486 3.320413067273627 3.9627522891327516
228 19 1 0.0 3.9538378859103904 3.387070632447506 4.448486863549059
229 20 5 8.861242189860825 2.9044729891329224 4.367058312289459 1.7597952609006529
230 20 6 -8.861242189860825 3.0601885887441447 4.164122358259124 2.126130241118279
231 20 3 0.0 3.0447616496842818 4.115559014271942 2.627012158467064
232 20 3 0.0 2.802840574291346 4.453563261519131 2.7212328590229027
233 20 1 0.0 3.1011851536247375 3.9278868411487693 3.151918922824825
234 20 2 0.0 3.407995968650316 4.079751894211451 3.452416795357628
235 20 1 0.0 3.3295543852821443 3.8863102999696717 3.8604725993518314
236 20 1 0.0 3.424893070480551 3.8367939890953724 4.333999063987042
237 20 1 0.0 2.9280191081834857 4.680843111802135 3.15994186035621
238 20 1 0.0 2.8052860580239267 4.489654261284886 3.5998763744117594
239 20 1 0.0 3.0198633523328 4.523354057009026 3.9918047090148483
240 20 1 0.0 3.037729531994952 4.43147297066557 4.474615196531554
241 21 5 8.861242189860825 3.099108319647194 6.322924256566702 1.6915215516915723
242 21 6 -8.861242189860825 3.2002380532488788 6.454489394421283 2.1063649662644575
243 21 3 0.0 3.245067497296081 6.33539561002941 2.5934851520714206
244 21 3 0.0 3.0609952807911567 5.951039766506178 2.5873026808701356
245 21 1 0.0 3.378122393707946 6.334798019649271 3.137753105433358
246 21 2 0.0 3.095918748988676 6.45040381877 3.4761186534313024
247 21 1 0.0 3.299154559236711 6.367310552342481 3.878453074112273
248 21 1 0.0 3.2926475861772424 6.350095031499315 4.363664293883193
249 21 1 0.0 2.796956296298078 5.84207480305826 3.0094417988769564
250 21 1 0.0 3.018852224428016 5.7120373138358795 3.4325391910893885
251 21 1 0.0 2.883439373860443 5.7794497912530405 3.8543280348479225
252 21 1 0.0 2.950837613013142 5.713099117954544 4.336948348108196
253 22 5 8.861242189860825 3.4601307792957328 7.2792851520717194 1.8751438370899942
254 22 6 -8.861242189860825 3.309208013847877 7.429993591953369 2.267751723090192
255 22 3 0.0 3.351960973752528 7.43296808339723 2.7693914551439947
256 22 3 0.0 3.631258970009057 7.114463774078953 2.8162727149651707
257 22 1 0.0 3.311324540759556 7.564032944948759 3.3126246003130952
258 22 2 0.0 3.0407332538490124 7.353921678405594 3.61283861243587
259 22 1 0.0 3.1259705181167323 7.515531781485449 4.03319447943446
260 22 1 0.0 3.0568662787012593 7.510556148369835 4.513786291493082
261 22 1 0.0 3.5572921356024594 6.8355499643132935 3.236424327687045
262 22 1 0.0 3.6887849197190112 6.996532797439858 3.6858162835392725
263 22 1 0.0 3.5041376813539804 6.90444021735345 4.083574080429179
264 22 1 0.0 3.5084379369343566 6.948556058279734 4.5733726121142
265 23 5 8.861242189860825 3.059652512719758 8.453544841637903 1.851325006228207
266 23 6 -8.861242189860825 2.882974874884339 8.505611304224711 2.258394733540527
267 23 3 0.0 2.954194460159269 8.617641269415632 2.744044959039864
268 23 3 0.0 3.3803059212874875 8.61652210196136 2.7528760659370826
269 23 1 0.0 2.8786179849033613 8.760722680883305 3.280465944563863
270 23 2 0.0 2.883297427032755 8.470681759274903 3.631677004425363
271 23 1 0.0 2.8571096293018687 8.706567504362683 4.023792275833978
272 23 1 0.0 2.8584136002825504 8.728432521703443 4.508858109844427
273 23 1 0.0 3.5770159765133944 8.442881756430001 3.1898492551829336
274 23 1 0.0 3.5844871113773813 8.716642266697471 3.6023517642453715
275 23 1 0.0 3.566848318580152 8.583210827404688 4.029753021761572
276 23 1 0.0 3.580935479802185 8.6927434664396 4.5089935189383485
277 24 5 8.861242189860825 3.586642233552836 9.849440725854544 1.90661337184322
278 24 6 -8.861242189860825 3.7385632004719596 9.810421430821197 2.324978262288143
279 24 3 0.0 3.6388289388546626 9.710798598402144 2.8083078106042243
280 24 3 0.0 3.2129848681514908 9.70735134285035 2.7911275263877657
281 24 1 0.0 3.6827990868325697 9.583169106831557 3.3520990449933614
282 24 2 0.0 3.6538461407533123 9.882550726798426 3.6941914513611076
283 24 1 0.0 3.658246555427057 9.657688988893446 4.0935660959425
284 24 1 0.0 3.62746371217136 9.648964853003582 4.578070944898578
285 24 1 0.0 2.9882382017839766 9.890541318272144 3.2103193111409634
286 24 1 0.0 2.9581600532850145 9.627994094369932 3.629035462041528
287 24 1 0.0 2.948322338615713 9.773150296598152 4.052851232458677
288 24 1 0.0 2.9059791007599065 9.676494284023393 4.533196906635647
289 25 5 8.861242189860825 4.483582436543291 0.48715695873070336 1.6558152708635285
290 25 6 -8.861242189860825 4.504297602736261 0.38134872006432335 2.0894132017297276
291 25 3 0.0 4.36433074950049 0.48506802202621196 2.5617802945196297
292 25 3 0.0 4.184660358637557 0.8662359962094768 2.497907417695171
293 25 1 0.0 4.257564671960675 0.45428702887532557 3.1109479399409845
294 25 2 0.0 4.512232215743683 0.6433372684108477 3.4379025102259444
295 25 1 0.0 4.302968981615435 0.5915951661971423 3.842394692175306
296 25 1 0.0 4.274291674865999 0.6708405249476851 4.320585478203204
297 25 1 0.0 4.251079548472864 1.1927193912649001 2.8836384995613136
298 25 1 0.0 3.9929047271690057 1.1586981079598981 3.304764690563333
299 25 1 0.0 4.113886953183656 1.2758818674103085 3.719997370441886
300 25 1 0.0 4.000497322154205 1.3286655308152844 4.195627455394517
301 26 5 8.861242189860825 4.115558907743368 1.7660449269549459 1.763879542302419
302 26 6 -8.861242189860825 3.9741589876754833 1.7618197387836587 2.187695395617566
303 26 3 0.0 4.070263915666754 1.863610030353573 2.6713085295509553
304 26 3 0.0 4.486614964645191 1.9498105082922317 2.641787352281963
305 26 1 0.0 4.0222362847026565 1.9632005794149536 3.2205868167896337
306 26 2 0.0 4.1204706860968034 1.664464156949869 3.550134073234939
307 26 1 0.0 4.087366180191552 1.8715857970982854 3.957671788579742
308 26 1 0.0 4.13335104090459 1.8708764513288487 4.441049003663018
309 26 1 0.0 4.757330326450891 1.8004278130600309 3.046990248113781
310 26 1 0.0 4.751498547521487 2.0505604293957904 3.4742590387133454
311 26 1 0.0 4.804310340144637 1.8968063503395496 3.891820421821282
312 26 1 0.0 4.844593145113941 1.9846919624798274 4.374024440948068
313 27 5 8.861242189860825 4.274418350833047 3.6450356531254866 1.7122637917760926
314 27 6 -8.861242189860825 4.493280900446098 3.6431555533500464 2.1017856996750486
315 27 3 0.0 4.51142912461948 3.490001762574523 2.5810493455792725
316 27 3 0.0 4.1170744533565715 3.3325427892864314 2.6176728800049536
317 27 1 0.0 4.681435676772439 3.360122084516457 3.098891608322304
318 27 2 0.0 4.602110926453111 3.6108733996138476 3.4708139173047536
319 27 1 0.0 4.747526203968443 3.3833838164316123 3.841199065719447
320 27 1 0.0 4.7973842169175365 3.3398185286271396 4.322223895526769
321 27 1 0.0 3.9100837732873117 3.400066170125023 3.0785273417903536
322 27 1 0.0 4.039992958926405 3.12400430687191 3.4684919632173172
323 27 1 0.0 4.045433316897313 3.2342066420521514 3.9027876674966553
324 27 1 0.0 4.115023073849022 3.1048656944535855 4.372144127195678
325 28 5 8.861242189860825 5.021626846374347 4.304642677114243 1.574873544874685
326 28 6 -8.861242189860825 5.01138927048518 4.136472790991637 1.9886920420119643
327 28 3 0.0 4.847149426835944 4.177752751253957 2.462823165851968
328 28 3 0.0 4.687552192835299 4.572587198716898 2.4459501019445726
329 28 1 0.0 4.705787495836248 4.073377440627266 2.9948515171884793
330 28 2 0.0 4.947518553562772 4.200396593696479 3.359443168819625
331 28 1 0.0 4.711933924006494 4.101268716303908 3.7399110620746763
332 28 1 0.0 4.65731767251079 4.112000080157992 4.2222704152028925
333 28 1 0.0 4.743600339827155 4.836286402470154 2.8785153787544386
334 28 1 0.0 4.458947631089624 4.754697728431767 3.2753466760306393
335 28 1 0.0 4.558997771491425 4.804584418825972 3.709268556622767
336 28 1 0.0 4.418968555533747 4.793735964643942 4.180587377570574
337 29 5 8.861242189860825 4.6651374560628005 5.914246094617178 1.5892814343032693
338 29 6 -8.861242189860825 4.749536431576295 6.130040406421151 1.9713040711415275
339 29 3 0.0 4.769146219988686 6.116899483322022 2.4742174397185552
340 29 3 0.0 4.577635485710544 5.741960602159582 2.5405099154496003
341 29 1 0.0 4.876660298582658 6.230783772579768 3.012179017523675
342 29 2 0.0 4.581456564304756 6.418673808901428 3.303807087973963
343 29 1 0.0 4.763962644166786 6.421021181597656 3.7242453024743605
344 29 1 0.0 4.734503201275077 6.507543368455789 4.2011254709167885
345 29 1 0.0 4.292015751850393 5.728080878473342 2.962434203021398
346 29 1 0.0 4.491217467342252 5.688788506018904 3.4140244385589593
347 29 1 0.0 4.3377283854896485 5.84582954527071 3.804621577145859
348 29 1 0.0 4.3811803718942635 5.8830289800483735 4.293083887042138
349 30 5 8.861242189860825 4.598862506661558 6.789898740271379 1.5810451434950432
350 30 6 -8.861242189860825 4.695036128801874 6.6908123459421285 2.00597359393673
351 30 3 0.0 4.555106241782812 6.7014826320533345 2.4894866296121982
352 30 3 0.0 4.21626674730037 6.957981648132196 2.4571405321798183
353 30 1 0.0 4.511654714215839 6.6057770168040255 3.0398355803626065
354 30 2 0.0 4.6719695178324585 6.879872704050212 3.3664325183910226
355 30 1 0.0 4.537732149236262 6.723118977866185 3.7756890024658074
356 30 1 0.0 4.507968513769727 6.763476766379331 4.258652787400067
357 30 1 0.0 4.15061960625356 7.264529468369676 2.8590239360707344
358 30 1 0.0 3.9660461459491336 7.1002319554208855 3.2880902710481603
359 30 1 0.0 4.047053006359457 7.245699482809565 3.704099883883492
360 30 1 0.0 3.9543211740645416 7.22346561751351 4.186566218224778
361 31 5 8.861242189860825 4.150787595709264 8.343705860512506 1.6631117737791414
362 31 6 -8.861242189860825 4.019658312880306 8.309579611613282 2.0888724782275023
363 31 3 0.0 4.074028824938697 8.460269650098349 2.566172639210973
364 31 3 0.0 4.434054788653189 8.684905317712694 2.5265451162432866
365 31 1 0.0 3.994096093001564 8.561576608017498 3.1114058244376803
366 31 2 0.0 4.190402125760781 8.3311275310719 3.4517762203189766
367 31 1 0.0 4.086930329241874 8.531885530973852 3.8506146391780183
368 31 1 0.0 4.130139688787454 8.569130879321637 4.332812086207754
369 31 1 0.0 4.739790514020171 8.657867015987485 2.9334676887519398
370 31 1 0.0 4.646845211206106 8.909294586161385 3.3497660222366163
371 31 1 0.0 4.749925685372684 8.802687484431894 3.7726090813447772
372 31 1 0.0 4.7568471647756265 8.920819546569646 4.2499603254800045
373 32 5 8.861242189860825 4.633129971907883 9.265171551071179 1.6312988980374703
374 32 6 -8.861242189860825 4.856975718781205 9.370172897127704 2.003454062000804
375 32 3 0.0 4.880993256663886 9.355786631988831 2.5061421135838686
376 32 3 0.0 4.486846874655888 9.216770051288561 2.5896480303206877
377 32 1 0.0 5.057395722320204 9.373641733757578 3.037644637643187
378 32 2 0.0 4.983327368370782 9.7180905699304 3.326372398964372
379 32 1 0.0 5.133062656478187 9.601417142044657 3.7435641130218844
380 32 1 0.0 5.189015643242104 9.692640742292813 4.217184383573983
381 32 1 0.0 4.285922165287961 9.410513474649045 3.016126787837276
382 32 1 0.0 4.4203130836407665 9.252683145579415 3.465779568447971
383 32 1 0.0 4.4315403425990665 9.47892972627223 3.8523973956502457
384 32 1 0.0 4.5069124707772295 9.484400179099191 4.338356671412377
385 33 5 8.861242189860825 5.429563817205216 0.613669319723964 1.8606187176546034
386 33 6 -8.861242189860825 5.3722954592058345 0.38045305500979476 2.2373974009374535
387 33 3 0.0 5.385996528658925 0.37130195566452107 2.7405947996107614
388 33 3 0.0 5.5787014172543286 0.7449283475457908 2.8107258447395966
389 33 1 0.0 5.315255266882454 0.23280804210687586 3.2788760248267144
390 33 2 0.0 5.630539258375666 0.03535821325265753 3.541753204796144
391 33 1 0.0 5.476350495119236 0.012671663206262673 3.972790810220436
392 33 1 0.0 5.538022311274959 10.279217046136235 4.442368005251385
393 33 1 0.0 5.8915727021327235 0.7432244565895572 3.2130938844707244
394 33 1 0.0 5.7224838715885 0.7605953104842513 3.6781381572459346
395 33 1 0.0 5.902706693451822 0.5881543359879465 4.05038908837157
396 33 1 0.0 5.892032832739674 0.5291020703211923 4.5385142771055795
397 34 5 8.861242189860825 5.700094790944309 2.1558490863683764 1.7896976069220965
398 34 6 -8.861242189860825 5.8279419467882105 1.9651441818607618 2.172996982438024
399 34 3 0.0 5.781303985617008 1.938806914319102 2.6736069432570253
400 34 3 0.0 5.543731916267648 2.28661617310282 2.738710319966909
401 34 1 0.0 5.801039427588284 1.7727585933738352 3.2083686051884723
402 34 2 0.0 6.093496738138585 1.9297097231280016 3.5203460183608164
403 34 1 0.0 5.985471394827494 1.7562414333368526 3.9306161113445937
404 34 1 0.0 6.0509640193690055 1.724953089275614 4.4107206815211875
405 34 1 0.0 5.648812070721276 2.5295026128880886 3.174319918175394
406 34 1 0.0 5.49475226817941 2.3607936660184117 3.613594118769685
407 34 1 0.0 5.686418770950349 2.40604376797585 4.0160904428745345
408 34 1 0.0 5.672869397081582 2.334813437524087 4.502516136841238
409 35 5 8.861242189860825 5.712373266628174 2.877530301276498 1.8257234187084683
410 35 6 -8.861242189860825 5.4711532299621295 2.9336542476438 2.1976033236327948
411 35 3 0.0 5.46214061062718 3.0464559433946063 2.688188315334982
412 35 3 0.0 5.880764703743765 3.0392298317710327 2.7678869367958714
413 35 1 0.0 5.300402889217061 3.1926101404508724 3.2043389016817647
414 35 2 0.0 5.242217142102649 2.903843134841691 3.5517908800318327
415 35 1 0.0 5.154584671944803 3.141541795899703 3.933762303390603
416 35 1 0.0 5.075401164492891 3.1651937911762578 4.412238214921092
417 35 1 0.0 5.999347112786383 2.8644031700461 3.2317460039258394
418 35 1 0.0 5.9420655549621975 3.139563395594429 3.639378961659013
419 35 1 0.0 5.851507822023394 3.0079941317355807 4.058038413650893
420 35 1 0.0 5.787197811782935 3.1190981252275183 4.532788270388636
421 36 5 8.861242189860825 5.665845027815917 4.526408928355144 1.8227478065725804
422 36 6 -8.861242189860825 5.458445237173672 4.535380219299051 2.2183947576689924
423 36 3 0.0 5.495550780670229 4.533893823490009 2.7204904190964667