Lipid soup setup

4400 atoms
1408 bonds
1024 angles
0 dihedrals
0 impropers

6 atom types
2 bond types
3 angle types
0 dihedral types
0 improper types

0 11.529621115003769 xlo xhi
0 11.529621115003769 ylo yhi
0 11.033196428571427 zlo zhi

Masses

1 1
2 1
3 1
4 1
5 1
6 1

Atoms

1 1 5 8.861242189860825 0.6131356036267746 0.7377584639769383 2.3103788002183503
2 1 6 -8.861242189860825 0.7492724315914713 0.5527469214031134 2.693613924284109
3 1 3 0.0 0.704352241652818 0.5247369367673941 3.194290168229786
4 1 3 0.0 0.45254752314905655 0.8623614101616026 3.259515293712001
5 1 1 0.0 0.7316175064767876 0.359924613975531 3.729103286262858
6 1 2 0.0 1.0176300803084093 0.5290999906799165 4.040666027106933
7 1 1 0.0 0.9174118667325416 0.3514801347200558 4.451141078716555
8 1 1 0.0 0.9847074475796085 0.3231925463710364 4.931182493379638
9 1 1 0.0 0.5479027539486734 1.1096395098052858 3.6948913437408
10 1 1 0.0 0.40152508430360717 0.9348682642874744 4.134422394282511
11 1 1 0.0 0.5916007957782462 0.9882790598227431 4.536672840841886
12 1 1 0.0 0.5815974669488984 0.9167888758695457 5.023146260742873
13 2 5 8.861242189860825 0.6956951292590802 2.3394239916130117 2.6455426979332346
14 2 6 -8.861242189860825 0.5451504909044038 2.181136873181297 3.035303095014284
15 2 3 0.0 0.5281382394368507 2.225246389414073 3.536545569105102
16 2 3 0.0 0.8284875920104144 2.52298459282875 3.589389177287049
17 2 1 0.0 0.3872446488527688 2.178693667804878 4.07683568364851
18 2 2 0.0 0.6059660634424987 1.9219228814627767 4.382980335792325
19 2 1 0.0 0.4300021688784629 1.998829977406999 4.799158516336123
20 2 1 0.0 0.4279923791910116 1.931678716846014 5.280048640583195
21 2 1 0.0 1.1015435616508205 2.4669355795579717 4.016109611644286
22 2 1 0.0 0.9228156005038098 2.5901474721844617 4.461119836516141
23 2 1 0.0 1.016453602117144 2.4125254447466595 4.861705970764771
24 2 1 0.0 0.9609178739471608 2.4157859426907473 5.3503494535917495
25 3 5 8.861242189860825 0.4751724099762966 3.423739081740499 2.3988792571556283
26 3 6 -8.861242189860825 0.6135331632423182 3.584529403948462 2.792115116877821
27 3 3 0.0 0.6971968189608476 3.5025530672525007 3.2817673984906928
28 3 3 0.0 0.5060427654089793 3.1236954190014767 3.3214817342151965
29 3 1 0.0 0.8758285489639455 3.5408693051648266 3.811441013633616
30 3 2 0.0 0.625523895720156 3.689578321748444 4.161766649159152
31 3 1 0.0 0.8604960637035507 3.6328552462999264 4.551192950970301
32 3 1 0.0 0.8947775485575473 3.653575661549778 5.035097990038878
33 3 1 0.0 0.27669101087975795 3.0546344614959726 3.771392548028012
34 3 1 0.0 0.5311254049145248 2.9522627137784947 4.183632913861221
35 3 1 0.0 0.4332131619709279 3.05568311251366 4.608490919242701
36 3 1 0.0 0.539974657981678 3.0253482744591054 5.08760372624043
37 4 5 8.861242189860825 0.8846583685248905 5.192019474635628 2.330461733641001
38 4 6 -8.861242189860825 1.0626613307130992 5.181371797341523 2.7401362868561074
39 4 3 0.0 1.0316034989299359 5.018393692711967 3.2154810380117875
40 4 3 0.0 0.635317781513407 4.8616820041515725 3.2084599889546457
41 4 1 0.0 1.1477162459786097 4.87733384429963 3.745152178219489
42 4 2 0.0 1.0312860353563875 5.120727719577161 4.112164806731074
43 4 1 0.0 1.1378138472351556 4.885182290141038 4.490651857401948
44 4 1 0.0 1.1382967422337549 4.831615577217183 4.973247979150596
45 4 1 0.0 0.3825256691445119 4.920543918055848 3.64712022941247
46 4 1 0.0 0.4715539735664089 4.636094186480602 4.042495071858725
47 4 1 0.0 0.43286193816149976 4.737381116237744 4.477271790630686
48 4 1 0.0 0.4540258234099119 4.598222458614218 4.948498126088609
49 5 5 8.861242189860825 0.519750877069385 6.25361823294812 2.6727708165233093
50 5 6 -8.861242189860825 0.4861556432641849 6.427949812092205 3.082784874709412
51 5 3 0.0 0.6553496631311706 6.4410203986355645 3.55679081070983
52 5 3 0.0 0.9113739741311389 6.1004071812210166 3.547603504839924
53 5 1 0.0 0.7648612247250896 6.5901801731935805 4.085648208465869
54 5 2 0.0 0.5639575972701747 6.4133149830321425 4.454228293304629
55 5 1 0.0 0.7659016131976891 6.578310627960411 4.831159750128327
56 5 1 0.0 0.8212996157583841 6.592809603083019 5.313331383139396
57 5 1 0.0 0.9251005411996474 5.840911045406874 3.9860835162394865
58 5 1 0.0 1.1789713234976833 6.001981673983857 4.37948513459669
59 5 1 0.0 1.0950455901978209 5.937699819869201 4.814928845598674
60 5 1 0.0 1.2274057397124922 5.994818064780214 5.2851262490136985
61 6 5 8.861242189860825 1.039100951397164 7.634369624586128 2.5862132399719644
62 6 6 -8.861242189860825 1.0213059679058483 7.874355681139891 2.9626726645502997
63 6 3 0.0 0.9576094852969592 7.881938889401071 3.4620365969790368
64 6 3 0.0 0.8216618811904355 7.4821601816268295 3.5198764797391155
65 6 1 0.0 0.9526383305482491 8.030878604661122 4.002151229690414
66 6 2 0.0 0.5857172700369226 8.175106595286536 4.230322358513782
67 6 1 0.0 0.691737018315843 8.223105435134544 4.673648644566823
68 6 1 0.0 0.5684261804099876 8.319495504662783 5.133292021979333
69 6 1 0.0 0.4750911489881458 7.433826420177981 3.8904759382221163
70 6 1 0.0 0.5988959801492575 7.4447591488087195 4.369758520887837
71 6 1 0.0 0.35805630311829917 7.586331770593129 4.720101714996455
72 6 1 0.0 0.3117315094409914 7.647079797002829 5.205931924058811
73 7 5 8.861242189860825 0.37840850185994057 9.5301793594205 2.340566952397426
74 7 6 -8.861242189860825 0.23115020517020848 9.658125872012832 2.7425325617510534
75 7 3 0.0 0.3190880592011651 9.699810404074954 3.236504643523051
76 7 3 0.0 0.6755437725695268 9.46761762964313 3.2625057626980034
77 7 1 0.0 0.297194797839865 9.845711450280167 3.7770276656538546
78 7 2 0.0 0.12128420974686999 9.58961781054611 4.110143793512701
79 7 1 0.0 0.20050945607570875 9.790781680207326 4.514295657846546
80 7 1 0.0 0.18115581730970876 9.79466259729129 4.9994544130978396
81 7 1 0.0 0.7179121149115897 9.202741449302138 3.695907327298399
82 7 1 0.0 0.8444681814816064 9.416887405903909 4.124024164279037
83 7 1 0.0 0.7292588084039062 9.302253489106421 4.541603829018864
84 7 1 0.0 0.7683225751931284 9.372995166303127 5.026719215799295
85 8 5 8.861242189860825 1.2013791332798838 10.414031247622342 2.5556054257121312
86 8 6 -8.861242189860825 1.3005038520461014 10.353341916412445 2.9870248994709625
87 8 3 0.0 1.1669735889814135 10.413340674559755 3.4687394433884418
88 8 3 0.0 0.8339824137537695 10.674002223727923 3.415610804262173
89 8 1 0.0 1.1281855792879225 10.371407569751126 4.026116041978079
90 8 2 0.0 1.2991106091679083 10.67116484402511 4.323479544505689
91 8 1 0.0 1.1663323229169604 10.557358905926622 4.747154427772619
92 8 1 0.0 1.1436308981411885 10.644095945818803 5.224365045709578
93 8 1 0.0 0.7807526639799469 11.018847534919136 3.787147731944161
94 8 1 0.0 0.597725971457081 10.900672288782005 4.2317765612450025
95 8 1 0.0 0.687423688975775 11.082889338215647 4.631198865701264
96 8 1 0.0 0.6002744015473325 11.10886362459286 5.114518262588459
97 9 5 8.861242189860825 2.2154543430024027 1.1986995543675485 2.7033695939232834
98 9 6 -8.861242189860825 2.0273556407247573 1.1233222367811857 3.1015765819665413
99 9 3 0.0 2.0832491596599474 1.0869979116493709 3.600611191888267
100 9 3 0.0 2.5088586675773255 1.0923205446745496 3.6224843406705594
101 9 1 0.0 1.9902825092168113 1.0620663294578165 4.152577844635547
102 9 2 0.0 1.9949870424354896 0.6806983309739505 4.401638397623642
103 9 1 0.0 1.952147313906416 0.7883866192427206 4.845091057765353
104 9 1 0.0 1.9408826277468476 0.6647100359593942 5.314501168692856
105 9 1 0.0 2.699869889470571 0.8005410489522238 3.9941977013798473
106 9 1 0.0 2.68903284562916 0.9390103376567553 4.469453179399101
107 9 1 0.0 2.664890562421006 0.6839170131047094 4.83705548741688
108 9 1 0.0 2.6639263280640684 0.6459100649601606 5.327383789072346
109 10 5 8.861242189860825 2.2926111646782026 2.5215418874146542 2.7244678450361794
110 10 6 -8.861242189860825 2.2091740684027785 2.6930180189018214 3.12852954134858
111 10 3 0.0 2.1609134625701416 2.616146168338215 3.623747388836494
112 10 3 0.0 2.163071571405723 2.1899636368132662 3.6274904729773416
113 10 1 0.0 2.123740569836688 2.6856541735435555 4.1784710866252475
114 10 2 0.0 1.7366651873898622 2.673082405874471 4.41828234765452
115 10 1 0.0 1.834283107905908 2.696182399916001 4.8655176363190735
116 10 1 0.0 1.6998029295153143 2.688301008649848 5.3320169481509625
117 10 1 0.0 1.86154610980283 1.9853789986954848 3.9838875905222197
118 10 1 0.0 1.98899737277149 1.9749269083392702 4.462224170971329
119 10 1 0.0 1.7255849667233156 1.9852045592402452 4.824570945707059
120 10 1 0.0 1.6761992052694048 1.9655208387107455 5.313489035954522
121 11 5 8.861242189860825 2.152921895805166 3.2645554392080274 2.409715771017111
122 11 6 -8.861242189860825 2.2156486544154146 3.099169054975878 2.8200136686432145
123 11 3 0.0 2.1985690198456243 3.1729667903663192 3.3177498078667735
124 11 3 0.0 2.1354201120587364 3.59444104568066 3.3224280385355853
125 11 1 0.0 2.18495730968655 3.099215869202496 3.8730038853882807
126 11 2 0.0 2.5380390438829052 3.161859717535455 4.153902228562574
127 11 1 0.0 2.3968470826271346 3.1170043471337436 4.5876476577953635
128 11 1 0.0 2.477521278963212 3.135204630381467 5.066112981913123
129 11 1 0.0 2.3643927691613205 3.8329331391860193 3.710351261838512
130 11 1 0.0 2.1857075711736353 3.816508260248496 4.1718279981891735
131 11 1 0.0 2.407098869753107 3.8368374303997013 4.5608775177670475
132 11 1 0.0 2.399942924776371 3.8543032430802646 5.052315244339184
133 12 5 8.861242189860825 1.7381670620870147 5.025016898407554 2.541516202656899
134 12 6 -8.861242189860825 1.6589216957912272 5.1115099485288775 2.9726435519782917
135 12 3 0.0 1.834919844806874 5.131211192257881 3.443934965536364
136 12 3 0.0 2.2094405926708696 4.936369059797497 3.3854458970933687
137 12 1 0.0 1.9029121566668477 5.239968479093979 3.9893526639274355
138 12 2 0.0 1.817512726543167 4.9465857940706774 4.327181584267598
139 12 1 0.0 1.9534269310578707 5.129281348174656 4.724965363573943
140 12 1 0.0 2.0263044611010184 5.10079940782196 5.204179603070681
141 12 1 0.0 2.3572717152275238 4.650812621561291 3.780913801389546
142 12 1 0.0 2.5428262601295595 4.849842246440531 4.194575105003378
143 12 1 0.0 2.5199422019627877 4.697932847320735 4.615510688282338
144 12 1 0.0 2.6438370485872698 4.741921327158854 5.0894119247028815
145 13 5 8.861242189860825 1.9715995190254534 6.507410591661336 2.5026696709540435
146 13 6 -8.861242189860825 2.169583295952905 6.355113206486641 2.8731283024826193
147 13 3 0.0 2.1466085540460558 6.281825330443259 3.370702550624877
148 13 3 0.0 1.7972510114724278 6.509990643650502 3.457536389568011
149 13 1 0.0 2.238289161149154 6.10217982962941 3.8934393179837223
150 13 2 0.0 2.45682920416072 6.337654245569297 4.2163741271842845
151 13 1 0.0 2.430331613229804 6.110930701962184 4.613836809717568
152 13 1 0.0 2.512695976424936 6.076504278230092 5.091120347745395
153 13 1 0.0 1.8124588773505352 6.7467189252392865 3.9086681054275516
154 13 1 0.0 1.7421173020550116 6.505270523017443 4.335181512802198
155 13 1 0.0 1.9110631781936827 6.593906231959028 4.740629305946612
156 13 1 0.0 1.9353081710269422 6.49244220840617 5.221237809311329
157 14 5 8.861242189860825 1.7369081757053328 8.072327593565474 2.657768504428538
158 14 6 -8.861242189860825 1.6262312201086495 8.066917589176335 3.0906114441698405
159 14 3 0.0 1.7753492115674836 8.100693375674563 3.5703010363278094
160 14 3 0.0 2.197268820155612 8.084535515336663 3.5122236248170764
161 14 1 0.0 1.78885853627231 8.162058029988415 4.12706260556296
162 14 2 0.0 1.8299237359850564 7.821525747824422 4.426806256257794
163 14 1 0.0 1.8757551277479632 7.995117887512919 4.848525978496281
164 14 1 0.0 1.9507714726886642 7.94218235167456 5.3253267961184045
165 14 1 0.0 2.4471758042957372 7.839620065203878 3.882837042149965
166 14 1 0.0 2.5313808757639755 8.046405324346699 4.324774048250533
167 14 1 0.0 2.570476184054287 7.84956050127388 4.725411769176349
168 14 1 0.0 2.662095942374985 7.883690579155495 5.207395439987451
169 15 5 8.861242189860825 2.1430924061842376 9.824730297302594 2.529659332830839
170 15 6 -8.861242189860825 1.9440834753549405 9.740571445143116 2.9207403988323946
171 15 3 0.0 1.9724596570746815 9.740485143029442 3.4234071560562267
172 15 3 0.0 2.3892804898409654 9.817121315068386 3.4685459287121665
173 15 1 0.0 1.848960168806561 9.729861287666726 3.9698196172290765
174 15 2 0.0 1.8989436518082345 9.368250329572142 4.24227880383887
175 15 1 0.0 1.8104622655860418 9.490756208365937 4.6749976796816295
176 15 1 0.0 1.7887436525484453 9.391986368187167 5.1499097380320835
177 15 1 0.0 2.6002615542887395 9.580991635839526 3.867946915910093
178 15 1 0.0 2.5362501037865446 9.740780240545472 4.332198023427996
179 15 1 0.0 2.529708900825544 9.505058755078217 4.713222307276742
180 15 1 0.0 2.5029353557532357 9.49347091520482 5.204156315582157
181 16 5 8.861242189860825 1.9663030581048235 11.023459143628488 2.606964704940697
182 16 6 -8.861242189860825 1.9352602813213924 10.770314409026282 2.973824019234728
183 16 3 0.0 1.8801663256235968 10.747260963021802 3.4737362901661957
184 16 3 0.0 1.9294396037036619 11.160152267695272 3.567241011340743
185 16 1 0.0 1.7830666091947178 10.573340297115244 3.9974297259378098
186 16 2 0.0 2.104979700643958 10.478310928554752 4.305384629486558
187 16 1 0.0 1.9073837361335342 10.391062577133294 4.709644238575687
188 16 1 0.0 1.9336392052515348 10.292101376032852 5.184287234590622
189 16 1 0.0 2.165994479523551 11.24429574925893 4.010809550327789
190 16 1 0.0 1.9366850888284428 11.188867874774964 4.446130017214077
191 16 1 0.0 2.108741703646506 11.069894418881935 4.842398548666846
192 16 1 0.0 2.0491451078988763 10.992347882974203 5.324375811412193
193 17 5 8.861242189860825 3.7384610199831183 0.7233893375525199 2.6400971794044947
194 17 6 -8.861242189860825 3.7135115904043796 0.5546410544881746 3.053053847903824
195 17 3 0.0 3.6370780298769745 0.6358705378479107 3.544010837683156
196 17 3 0.0 3.643529454304359 1.062025408556258 3.5448005110684
197 17 1 0.0 3.531660457130742 0.5716252854126409 4.090537369999793
198 17 2 0.0 3.8459653660519795 0.5789750536029952 4.4201632899313
199 17 1 0.0 3.638272420409364 0.5626838274412205 4.82842853194671
200 17 1 0.0 3.650956309799213 0.5728908846117862 5.313715640349298
201 17 1 0.0 3.849952634053691 1.264323806109846 3.964629300877227
202 17 1 0.0 3.6063039814977706 1.2825139313358942 4.395283928476668
203 17 1 0.0 3.769574042482726 1.2708396528114239 4.812409220608922
204 17 1 0.0 3.694544574977507 1.2948052079532952 5.297861105384455
205 18 5 8.861242189860825 3.5035724059756133 2.0555285809078123 2.3788609010863113
206 18 6 -8.861242189860825 3.4093128020793886 2.210153143400133 2.787319024862689
207 18 3 0.0 3.485738251307919 2.1795614964229255 3.284010464088702
208 18 3 0.0 3.7053405309511955 1.8145264510751362 3.297219276793089
209 18 1 0.0 3.5063266738029273 2.287510860243242 3.833423441128909
210 18 2 0.0 3.2231362510111317 2.113569612366352 4.144939843074562
211 18 1 0.0 3.3644403741113242 2.2355312036353756 4.563557552455658
212 18 1 0.0 3.3282522087177386 2.218080392484735 5.047452715196012
213 18 1 0.0 3.6107430824305746 1.5318511632991667 3.710665026507704
214 18 1 0.0 3.7992830334631575 1.6434807877199247 4.15468131971909
215 18 1 0.0 3.628365160216211 1.565217388479805 4.561435338597378
216 18 1 0.0 3.673702118754613 1.5824983718983057 5.05083622648181
217 19 5 8.861242189860825 3.557896733451976 3.2402161771734193 2.6458666787920064
218 19 6 -8.861242189860825 3.5132442650711893 3.120678543281173 3.0740588999759972
219 19 3 0.0 3.584495918391003 3.2346821073053644 3.5592449191933118
220 19 3 0.0 3.8343713151633896 3.5768795728106424 3.5132731998513957
221 19 1 0.0 3.5587783944111133 3.247898686372974 4.118794290230686
222 19 2 0.0 3.8720539424082823 3.0726558048857466 4.399228249426534
223 19 1 0.0 3.7678733695141426 3.183551311393039 4.8315832730187225
224 19 1 0.0 3.8686727928434266 3.1878248808349543 5.306546277376526
225 19 1 0.0 4.188979798419735 3.6235188065690367 3.876410899656832
226 19 1 0.0 4.079733930097221 3.7835569046228765 4.332055610200736
227 19 1 0.0 4.27654327625309 3.6816670435980687 4.721505797536113
228 19 1 0.0 4.315091862234832 3.7483246087719477 5.20724037195242
229 20 5 8.861242189860825 3.265726965457364 4.872813879143678 2.5185487693040143
230 20 6 -8.861242189860825 3.4214425650685865 4.669877925113342 2.8848837495216397
231 20 3 0.0 3.4060156260087235 4.6213145811261604 3.3857656668704252
232 20 3 0.0 3.1640945506157876 4.959318828373348 3.479986367426264
233 20 1 0.0 3.4624391299491792 4.433642408002988 3.9106724312281864
234 20 2 0.0 3.769249944974758 4.585507461065669 4.211170303760989
235 20 1 0.0 3.690808361606586 4.3920658668238906 4.619226107755193
236 20 1 0.0 3.7861470468049925 4.342549555949591 5.092752572390403
237 20 1 0.0 3.2892730845079274 5.186598678656353 3.918695368759572
238 20 1 0.0 3.1665400343483685 4.995409828139104 4.358629882815121
239 20 1 0.0 3.3811173286572416 5.029109623863245 4.7505582174182095
240 20 1 0.0 3.398983508319394 4.937228537519789 5.2333687049349145
241 21 5 8.861242189860825 3.460362295971636 6.973181413950696 2.450275060094934
242 21 6 -8.861242189860825 3.561492029573321 7.1047465518052775 2.865118474667819
243 21 3 0.0 3.606321473620523 6.985652767413405 3.3522386604747823
244 21 3 0.0 3.422249257115599 6.601296923890173 3.3460561892734972
245 21 1 0.0 3.7393763700323883 6.985055177033265 3.8965066138367197
246 21 2 0.0 3.4571727253131184 7.1006609761539945 4.234872161834664
247 21 1 0.0 3.660408535561153 7.0175677097264755 4.637206582515635
248 21 1 0.0 3.6539015625016846 7.000352188883309 5.122417802286555
249 21 1 0.0 3.15821027262252 6.492331960442255 3.768195307280318
250 21 1 0.0 3.3801062007524583 6.362294471219874 4.19129269949275
251 21 1 0.0 3.2446933501848854 6.429706948637035 4.613081543251284
252 21 1 0.0 3.312091589337584 6.363356275338538 5.095701856511558
253 22 5 8.861242189860825 3.8213847556201745 8.07404389998549 2.633897345493356
254 22 6 -8.861242189860825 3.670461990172319 8.224752339867141 3.0265052314935534
255 22 3 0.0 3.71321495007697 8.227726831311001 3.5281449635473563
256 22 3 0.0 3.9925129463334987 7.909222521992724 3.5750262233685324
257 22 1 0.0 3.672578517083998 8.358791692862532 4.0713781087164564
258 22 2 0.0 3.401987230173454 8.148680426319364 4.371592120839232
259 22 1 0.0 3.4872244944411745 8.31029052939922 4.791947987837822
260 22 1 0.0 3.418120255025701 8.305314896283607 5.272539799896443
261 22 1 0.0 3.918546111926901 7.630308712227065 3.9951778360904067
262 22 1 0.0 4.0500388960434535 7.79129154535363 4.444569791942634
263 22 1 0.0 3.8653916576784226 7.699198965267222 4.842327588832541
264 22 1 0.0 3.8696919132587984 7.7433148061935055 5.332126120517562
265 23 5 8.861242189860825 3.4209064890442 9.392805180081451 2.6100785146315686
266 23 6 -8.861242189860825 3.244228851208781 9.444871642668259 3.0171482419438886
267 23 3 0.0 3.315448436483711 9.55690160785918 3.5027984674432258
268 23 3 0.0 3.7415598976119293 9.555782440404908 3.511629574340444
269 23 1 0.0 3.239871961227803 9.699983019326854 4.039219452967225
270 23 2 0.0 3.244551403357197 9.409942097718451 4.390430512828725
271 23 1 0.0 3.218363605626311 9.64582784280623 4.782545784237341
272 23 1 0.0 3.219667576606992 9.66769286014699 5.267611618247789
273 23 1 0.0 3.938269952837836 9.382142094873549 3.9486027635862953
274 23 1 0.0 3.945741087701823 9.65590260514102 4.361105272648733
275 23 1 0.0 3.9281022949045936 9.522471165848236 4.788506530164933
276 23 1 0.0 3.9421894561266266 9.632003804883148 5.267747027341711
277 24 5 8.861242189860825 3.9478962098772783 10.933202654827868 2.665366880246582
278 24 6 -8.861242189860825 4.099817176796402 10.894183359794521 3.0837317706915055
279 24 3 0.0 4.000082915179105 10.794560527375468 3.5670613190075864
280 24 3 0.0 3.574238844475933 10.791113271823674 3.549881034791128
281 24 1 0.0 4.044053063157012 10.66693103580488 4.1108525533967235
282 24 2 0.0 4.015100117077755 10.96631265577175 4.45294495976447
283 24 1 0.0 4.019500531751499 10.74145091786677 4.852319604345862
284 24 1 0.0 3.9887176884958024 10.732726781976906 5.33682445330194
285 24 1 0.0 3.349492178108419 10.974303247245468 3.9690728195443254
286 24 1 0.0 3.3194140296094568 10.711756023343256 4.38778897044489
287 24 1 0.0 3.309576314940155 10.856912225571476 4.811604740862039
288 24 1 0.0 3.2672330770843487 10.760256212996717 5.291950415039008
289 25 5 8.861242189860825 4.989338003397509 0.5594077539955917 2.41456877926689
290 25 6 -8.861242189860825 5.0100531695904795 0.45359951532921167 2.848166710133089
291 25 3 0.0 4.870086316354708 0.5573188172911003 3.3205338029229914
292 25 3 0.0 4.690415925491775 0.9384867914743651 3.2566609260985326
293 25 1 0.0 4.763320238814893 0.5265378241402139 3.869701448344346
294 25 2 0.0 5.017987782597901 0.715588063675736 4.196656018629306
295 25 1 0.0 4.8087245484696535 0.6638459614620306 4.601148200578668
296 25 1 0.0 4.780047241720218 0.7430913202125734 5.079338986606565
297 25 1 0.0 4.756835115327083 1.2649701865297884 3.642392007964675
298 25 1 0.0 4.4986602940232245 1.2309489032247862 4.063518198966695
299 25 1 0.0 4.619642520037875 1.3481326626751966 4.478750878845247
300 25 1 0.0 4.506252889008423 1.4009163260801727 4.954380963797879
301 26 5 8.861242189860825 4.621314474597586 1.9827973127496104 2.522633050705781
302 26 6 -8.861242189860825 4.479914554529702 1.9785721245783232 2.9464489040209276
303 26 3 0.0 4.576019482520971 2.0803624161482372 3.430062037954317
304 26 3 0.0 4.992370531499409 2.166562894086896 3.4005408606853247
305 26 1 0.0 4.527991851556875 2.179952965209618 3.9793403251929953
306 26 2 0.0 4.626226252951022 1.8812165427445335 4.3088875816383005
307 26 1 0.0 4.59312174704577 2.08833818289295 4.716425296983103
308 26 1 0.0 4.639106607758809 2.087628837123513 5.19980251206638
309 26 1 0.0 5.263085893305109 2.017180198854695 3.805743756517143
310 26 1 0.0 5.257254114375705 2.267312815190455 4.233012547116707
311 26 1 0.0 5.310065906998855 2.113558736134214 4.650573930224644
312 26 1 0.0 5.350348711968159 2.201444348274492 5.13277794935143
313 27 5 8.861242189860825 4.780173917687265 4.006289629449928 2.4710173001794544
314 27 6 -8.861242189860825 4.999036467300316 4.004409529674488 2.8605392080784102
315 27 3 0.0 5.017184691473698 3.8512557388989648 3.339802853982634
316 27 3 0.0 4.62283002021079 3.6937967656108732 3.376426388408315
317 27 1 0.0 5.187191243626658 3.721376060840899 3.857645116725666
318 27 2 0.0 5.10786649330733 3.97212737593829 4.229567425708115
319 27 1 0.0 5.253281770822661 3.744637792756054 4.599952574122809
320 27 1 0.0 5.303139783771755 3.7010725049515814 5.080977403930131
321 27 1 0.0 4.41583934014153 3.761320146449465 3.8372808501937152
322 27 1 0.0 4.545748525780623 3.4852582831963517 4.227245471620679
323 27 1 0.0 4.551188883751531 3.595460618376593 4.661541175900017
324 27 1 0.0 4.62077864070324 3.4661196707780273 5.130897635599039
325 28 5 8.861242189860825 5.527382413228565 4.810398243968462 2.3336270532780468
326 28 6 -8.861242189860825 5.517144837339399 4.642228357845855 2.7474455504153257
327 28 3 0.0 5.352904993690163 4.683508318108175 3.2215766742553296
328 28 3 0.0 5.193307759689517 5.078342765571116 3.2047036103479343
329 28 1 0.0 5.211543062690466 4.579133007481484 3.753605025591841
330 28 2 0.0 5.4532741204169906 4.7061521605506975 4.118196677222986
331 28 1 0.0 5.217689490860712 4.607024283158126 4.498664570478038
332 28 1 0.0 5.1630732393650085 4.617755647012211 4.981023923606254
333 28 1 0.0 5.249355906681373 5.342041969324373 3.6372688871578003
334 28 1 0.0 4.964703197943843 5.260453295285985 4.034100184434001
335 28 1 0.0 5.064753338345644 5.310339985680191 4.468022065026129
336 28 1 0.0 4.924724122387965 5.299491531498161 4.939340885973936
337 29 5 8.861242189860825 5.170893022917019 6.564503252001173 2.348034942706631
338 29 6 -8.861242189860825 5.255291998430513 6.780297563805146 2.730057579544889
339 29 3 0.0 5.274901786842904 6.767156640706016 3.232970948121917
340 29 3 0.0 5.083391052564762 6.392217759543577 3.299263423852962
341 29 1 0.0 5.382415865436877 6.8810409299637625 3.7709325259270368
342 29 2 0.0 5.087212131158974 7.068930966285422 4.062560596377325
343 29 1 0.0 5.269718211021004 7.07127833898165 4.482998810877723
344 29 1 0.0 5.240258768129295 7.157800525839782 4.95987897932015
345 29 1 0.0 4.797771318704611 6.378338035857337 3.7211877114247596
346 29 1 0.0 4.99697303419647 6.339045663402898 4.172777946962321
347 29 1 0.0 4.843483952343867 6.496086702654704 4.563375085549221
348 29 1 0.0 4.886935938748482 6.533286137432368 5.051837395445499
349 30 5 8.861242189860825 5.104618073515776 7.584657488185151 2.3397986518984046
350 30 6 -8.861242189860825 5.2007916956560925 7.4855710938559 2.7647271023400917
351 30 3 0.0 5.06086180863703 7.496241379967106 3.24824013801556
352 30 3 0.0 4.7220223141545885 7.752740396045968 3.21589404058318
353 30 1 0.0 5.017410281070058 7.400535764717797 3.798589088765968
354 30 2 0.0 5.177725084686678 7.674631451963983 4.125186026794385
355 30 1 0.0 5.04348771609048 7.5178777257799565 4.534442510869169
356 30 1 0.0 5.013724080623946 7.558235514293103 5.017406295803428
357 30 1 0.0 4.6563751731077785 8.059288216283447 3.617777444474096
358 30 1 0.0 4.4718017128033525 7.894990703334657 4.046843779451522
359 30 1 0.0 4.552808573213675 8.040458230723337 4.462853392286854
360 30 1 0.0 4.46007674091876 8.018224365427281 4.9453197266281395
361 31 5 8.861242189860825 4.656543162563483 9.282966198956053 2.421865282182503
362 31 6 -8.861242189860825 4.525413879734524 9.24883995005683 2.847625986630864
363 31 3 0.0 4.5797843917929155 9.399529988541897 3.3249261476143346
364 31 3 0.0 4.939810355507407 9.624165656156242 3.2852986246466482
365 31 1 0.0 4.499851659855782 9.500836946461046 3.870159332841042
366 31 2 0.0 4.6961576926149995 9.270387869515448 4.210529728722339
367 31 1 0.0 4.592685896096093 9.4711458694174 4.60936814758138
368 31 1 0.0 4.635895255641673 9.508391217765185 5.091565594611116
369 31 1 0.0 5.245546080874389 9.597127354431032 3.6922211971553014
370 31 1 0.0 5.152600778060324 9.848554924604933 4.1085195306399775
371 31 1 0.0 5.2556812522269025 9.741947822875442 4.531362589748139
372 31 1 0.0 5.262602731629845 9.860079885013194 5.008713833883366
373 32 5 8.861242189860825 5.138885538762102 10.348933480044503 2.390052406440832
374 32 6 -8.861242189860825 5.362731285635423 10.453934826101028 2.7622075704041658
375 32 3 0.0 5.386748823518104 10.439548560962155 3.2648956219872303
376 32 3 0.0 4.9926024415101065 10.300531980261885 3.3484015387240493
377 32 1 0.0 5.563151289174423 10.457403662730902 3.7963981460465486
378 32 2 0.0 5.489082935225 10.801852498903724 4.0851259073677335
379 32 1 0.0 5.638818223332406 10.68517907101798 4.502317621425246
380 32 1 0.0 5.694771210096323 10.776402671266137 4.9759378919773445
381 32 1 0.0 4.79167773214218 10.49427540362237 3.774880296240638
382 32 1 0.0 4.926068650494985 10.336445074552739 4.2245330768513325
383 32 1 0.0 4.937295909453285 10.562691655245555 4.611150904053607
384 32 1 0.0 5.012668037631448 10.568162108072515 5.097110179815738
385 33 5 8.861242189860825 6.079820974589212 0.6859201149888523 2.6193722260579655
386 33 6 -8.861242189860825 6.02255261658983 0.4527038502746831 2.996150909340816
387 33 3 0.0 6.036253686042921 0.4435527509294094 3.499348308014124
388 33 3 0.0 6.228958574638324 0.8171791428106792 3.5694793531429587
389 33 1 0.0 5.96551242426645 0.3050588373717642 4.037629533230077
390 33 2 0.0 6.280796415759662 0.10760900851754585 4.300506713199506
391 33 1 0.0 6.126607652503232 0.08492245847115099 4.731544318623798
392 33 1 0.0 6.188279468658955 11.507480565639336 5.201121513654748
393 33 1 0.0 6.541829859516719 0.8154752518544455 3.9718473928740865
394 33 1 0.0 6.372741028972495 0.8328461057491396 4.436891665649297
395 33 1 0.0 6.552963850835818 0.6604051312528348 4.809142596774931
396 33 1 0.0 6.5422899901236695 0.6013528655860806 5.297267785508942
397 34 5 8.861242189860825 6.350351948328304 2.372601472163041 2.548451115325458
398 34 6 -8.861242189860825 6.478199104172205 2.1818965676554267 2.931750490841386
399 34 3 0.0 6.4315611430010025 2.1555593001137665 3.432360451660387
400 34 3 0.0 6.193989073651642 2.5033685588974848 3.497463828370271
401 34 1 0.0 6.451296584972279 1.9895109791685 3.967122113591834
402 34 2 0.0 6.743753895522579 2.146462108922666 4.279099526764178
403 34 1 0.0 6.635728552211488 1.9729938191315173 4.689369619747955
404 34 1 0.0 6.701221176753 1.9417054750702787 5.16947418992455
405 34 1 0.0 6.299069228105271 2.746254998682754 3.9330734265787557
406 34 1 0.0 6.145009425563405 2.5775460518130764 4.372347627173047
407 34 1 0.0 6.336675928334343 2.6227961537705147 4.774843951277896
408 34 1 0.0 6.323126554465577 2.551565823318752 5.2612696452445995
409 35 5 8.861242189860825 6.36263042401217 3.2387842776009403 2.58447692711183
410 35 6 -8.861242189860825 6.121410387346125 3.2949082239682417 2.9563568320361564
411 35 3 0.0 6.112397768011175 3.407709919719048 3.4469418237383436
412 35 3 0.0 6.53102186112776 3.4004838080954745 3.526640445199233
413 35 1 0.0 5.950660046601056 3.553864116775314 3.9630924100851264
414 35 2 0.0 5.892474299486644 3.2650971111661327 4.310544388435194
415 35 1 0.0 5.804841829328798 3.502795772224145 4.692515811793965
416 35 1 0.0 5.725658321876886 3.5264477675006995 5.170991723324454
417 35 1 0.0 6.649604270170379 3.225657146370542 3.990499512329201
418 35 1 0.0 6.592322712346193 3.500817371918871 4.398132470062374
419 35 1 0.0 6.5017649794073895 3.3692481080600225 4.8167919220542545
420 35 1 0.0 6.4374549691669305 3.48035210155196 5.2915417787919985
421 36 5 8.861242189860825 6.316102185199911 5.032164495209362 2.5815013149759416
422 36 6 -8.861242189860825 6.108702394557667 5.041135786153269 2.977148266072353
423 36 3 0.0 6.145807938054223 5.039649390344227 3.479243927499828
424 36 3 0.0 6.559917782964254 4.946213116257898 3.5170978219243145