Lipid soup setup

4400 atoms
1408 bonds
1024 angles
0 dihedrals
0 impropers

6 atom types
2 bond types
3 angle types
0 dihedral types
0 improper types

0 10.063878379745889 xlo xhi
0 10.063878379745889 ylo yhi
0 14.481070312500002 zlo zhi

Masses

1 1
2 1
3 1
4 1
5 1
6 1

Atoms

1 1 5 8.861242189860825 0.521526682673157 0.6461495430233208 4.034315742182637
2 1 6 -8.861242189860825 0.6576635106378538 0.46113800044949593 4.417550866248396
3 1 3 0.0 0.6127433206992005 0.4331280158137766 4.918227110194073
4 1 3 0.0 0.36093860219543905 0.7707524892079851 4.983452235676288
5 1 1 0.0 0.6400085855231701 0.2683156930219135 5.453040228227145
6 1 2 0.0 0.9260211593547919 0.43749106972629903 5.76460296907122
7 1 1 0.0 0.8258029457789241 0.2598712137664383 6.175078020680843
8 1 1 0.0 0.893098526625991 0.2315836254174189 6.655119435343925
9 1 1 0.0 0.4562938329950558 1.0180305888516683 5.418828285705087
10 1 1 0.0 0.30991616334998967 0.8432593433338569 5.858359336246799
11 1 1 0.0 0.4999918748246287 0.8966701388691256 6.260609782806172
12 1 1 0.0 0.48998854599528086 0.8251799549159282 6.74708320270716
13 2 5 8.861242189860825 0.6040862083054627 2.06459722875216 4.369479639897522
14 2 6 -8.861242189860825 0.4535415699507863 1.906310110320445 4.7592400369785715
15 2 3 0.0 0.4365293184832332 1.950419626553221 5.260482511069389
16 2 3 0.0 0.7368786710567969 2.2481578299678984 5.313326119251336
17 2 1 0.0 0.2956357278991513 1.9038669049440258 5.800772625612797
18 2 2 0.0 0.5143571424888812 1.6470961186019246 6.1069172777566125
19 2 1 0.0 0.3383932479248454 1.724003214546147 6.523095458300411
20 2 1 0.0 0.3363834582373941 1.656851953985162 7.003985582547482
21 2 1 0.0 1.009934640697203 2.1921088166971194 5.740046553608573
22 2 1 0.0 0.8312066795501923 2.3153207093236094 6.185056778480428
23 2 1 0.0 0.9248446811635265 2.1376986818858073 6.5856429127290586
24 2 1 0.0 0.8693089529935433 2.1409591798298955 7.074286395556037
25 3 5 8.861242189860825 0.3835634890226791 2.965694476972412 4.122816199119916
26 3 6 -8.861242189860825 0.5219242422887007 3.126484799180375 4.516052058842108
27 3 3 0.0 0.6055878980072301 3.0445084624844134 5.00570434045498
28 3 3 0.0 0.4144338444553618 2.6656508142333895 5.045418676179485
29 3 1 0.0 0.784219628010328 3.0828247003967393 5.5353779555979035
30 3 2 0.0 0.5339149747665385 3.2315337169803566 5.88570359112344
31 3 1 0.0 0.7688871427499332 3.174810641531839 6.275129892934588
32 3 1 0.0 0.8031686276039298 3.195531056781691 6.759034932003165
33 3 1 0.0 0.18508208992614045 2.5965898567278853 5.495329489992299
34 3 1 0.0 0.43951648396090726 2.4942181090104074 5.907569855825509
35 3 1 0.0 0.3416042410173104 2.5976385077455726 6.332427861206988
36 3 1 0.0 0.4483657370280605 2.567303669691018 6.811540668204717
37 4 5 8.861242189860825 0.793049447571273 4.550757027960305 4.054398675605288
38 4 6 -8.861242189860825 0.9710524097594816 4.5401093506662 4.464073228820395
39 4 3 0.0 0.9399945779763184 4.377131246036644 4.939417979976075
40 4 3 0.0 0.5437088605597895 4.22041955747625 4.932396930918933
41 4 1 0.0 1.0561073250249922 4.236071397624308 5.469089120183776
42 4 2 0.0 0.93967711440277 4.479465272901838 5.836101748695361
43 4 1 0.0 1.046204926281538 4.243919843465715 6.214588799366235
44 4 1 0.0 1.0466878212801372 4.19035313054186 6.697184921114883
45 4 1 0.0 0.2909167481908944 4.279281471380525 5.371057171376758
46 4 1 0.0 0.3799450526127914 3.994831739805279 5.766432013823012
47 4 1 0.0 0.34125301720788226 4.096118669562421 6.201208732594973
48 4 1 0.0 0.3624169024562944 3.9569600119388957 6.672435068052896
49 5 5 8.861242189860825 0.4281419561157676 5.4291379443655625 4.396707758487596
50 5 6 -8.861242189860825 0.3945467223105674 5.603469523509648 4.806721816673699
51 5 3 0.0 0.5637407421775531 5.616540110053007 5.280727752674117
52 5 3 0.0 0.8197650531775214 5.275926892638459 5.271540446804211
53 5 1 0.0 0.673252303771472 5.765699884611023 5.8095851504301566
54 5 2 0.0 0.4723486763165572 5.588834694449586 6.178165235268916
55 5 1 0.0 0.6742926922440716 5.7538303393778545 6.555096692092613
56 5 1 0.0 0.7296906948047666 5.768329314500462 7.037268325103683
57 5 1 0.0 0.8334916202460299 5.016430756824317 5.710020458203774
58 5 1 0.0 1.0873624025440658 5.1775013854013 6.103422076560977
59 5 1 0.0 1.0034366692442034 5.113219531286644 6.538865787562961
60 5 1 0.0 1.135796818758875 5.170337776197656 7.009063190977986
61 6 5 8.861242189860825 0.9474920304435467 6.626671494096335 4.310150181936251
62 6 6 -8.861242189860825 0.9296970469522308 6.866657550650098 4.686609606514587
63 6 3 0.0 0.8660005643433417 6.874240758911278 5.185973538943324
64 6 3 0.0 0.730052960236818 6.474462051137037 5.243813421703403
65 6 1 0.0 0.8610294095946316 7.02318047417133 5.726088171654701
66 6 2 0.0 0.49410834908330514 7.167408464796744 5.9542593004780695
67 6 1 0.0 0.6001280973622255 7.215407304644751 6.39758558653111
68 6 1 0.0 0.4768172594563701 7.31179737417299 6.85722896394362
69 6 1 0.0 0.3834822280345283 6.426128289688188 5.6144128801864035
70 6 1 0.0 0.50728705919564 6.437061018318927 6.093695462852124
71 6 1 0.0 0.26644738216468167 6.5786336401033365 6.444038656960742
72 6 1 0.0 0.22012258848737387 6.639381666513036 6.929868866023099
73 7 5 8.861242189860825 0.28679958090632307 8.339263387023474 4.064503894361714
74 7 6 -8.861242189860825 0.13954128421659098 8.467209899615805 4.466469503715341
75 7 3 0.0 0.22747913824754762 8.508894431677927 4.960441585487339
76 7 3 0.0 0.5839348516159093 8.276701657246102 4.986442704662291
77 7 1 0.0 0.2055858768862475 8.65479547788314 5.500964607618142
78 7 2 0.0 0.029675288793252486 8.398701838149083 5.834080735476989
79 7 1 0.0 0.10890053512209125 8.599865707810299 6.238232599810834
80 7 1 0.0 0.08954689635609125 8.603746624894264 6.723391355062127
81 7 1 0.0 0.6263031939579722 8.011825476905111 5.419844269262687
82 7 1 0.0 0.7528592605279889 8.225971433506881 5.847961106243325
83 7 1 0.0 0.6376498874502887 8.111337516709394 6.265540770983152
84 7 1 0.0 0.6767136542395109 8.1820791939061 6.750656157763582
85 8 5 8.861242189860825 1.109770212326266 9.03989743331808 4.279542367676418
86 8 6 -8.861242189860825 1.208894931092484 8.979208102108183 4.71096184143525
87 8 3 0.0 1.0753646680277962 9.039206860255494 5.192676385352729
88 8 3 0.0 0.742373492800152 9.299868409423661 5.13954774622646
89 8 1 0.0 1.036576658334305 8.997273755446864 5.750052983942366
90 8 2 0.0 1.2075016882142906 9.297031029720848 6.047416486469976
91 8 1 0.0 1.074723401963343 9.18322509162236 6.471091369736906
92 8 1 0.0 1.052021977187571 9.269962131514541 6.948301987673865
93 8 1 0.0 0.6891437430263294 9.644713720614874 5.5110846739084485
94 8 1 0.0 0.5061170505034635 9.526538474477743 5.95571350320929
95 8 1 0.0 0.5958147680221575 9.708755523911385 6.355135807665551
96 8 1 0.0 0.508665480593715 9.734729810288599 6.838455204552746
97 9 5 8.861242189860825 1.94062758014155 1.107090633413931 4.4273065358875705
98 9 6 -8.861242189860825 1.7525288778639045 1.0317133158275682 4.825513523930828
99 9 3 0.0 1.8084223967990947 0.9953889906957534 5.324548133852554
100 9 3 0.0 2.2340319047164727 1.0007116237209321 5.3464212826348465
101 9 1 0.0 1.7154557463559585 0.970457408504199 5.876514786599834
102 9 2 0.0 1.720160279574637 0.589089410020333 6.125575339587929
103 9 1 0.0 1.6773205510455633 0.6967776982891031 6.569027999729641
104 9 1 0.0 1.6660558648859949 0.5731011150057767 7.038438110657143
105 9 1 0.0 2.4250431266097183 0.7089321279986063 5.7181346433441345
106 9 1 0.0 2.4142060827683074 0.8474014167031378 6.193390121363388
107 9 1 0.0 2.3900637995601532 0.5923080921510919 6.560992429381166
108 9 1 0.0 2.3890995652032156 0.5543011440065431 7.0513207310366335
109 10 5 8.861242189860825 2.01778440181735 2.246715124553802 4.448404787000467
110 10 6 -8.861242189860825 1.934347305541926 2.418191256040969 4.852466483312867
111 10 3 0.0 1.886086699709289 2.341319405477363 5.3476843308007815
112 10 3 0.0 1.8882448085448709 1.915136873952414 5.351427414941629
113 10 1 0.0 1.8489138069758355 2.4108274106827032 5.902408028589535
114 10 2 0.0 1.46183842452901 2.3982556430136186 6.142219289618807
115 10 1 0.0 1.5594563450450558 2.4213556370551483 6.589454578283361
116 10 1 0.0 1.424976166654462 2.4134742457889957 7.05595389011525
117 10 1 0.0 1.5867193469419778 1.7105522358346326 5.707824532486507
118 10 1 0.0 1.7141706099106377 1.700100145478418 6.186161112935616
119 10 1 0.0 1.4507582038624633 1.710377796379393 6.548507887671345
120 10 1 0.0 1.4013724424085525 1.6906940758498932 7.037425977918809
121 11 5 8.861242189860825 1.8780951329443136 2.806510834439939 4.133652712981397
122 11 6 -8.861242189860825 1.9408218915545625 2.6411244502077897 4.543950610607501
123 11 3 0.0 1.923742256984772 2.714922185598231 5.04168674983106
124 11 3 0.0 1.8605933491978843 3.1363964409125717 5.046364980499872
125 11 1 0.0 1.9101305468256977 2.6411712644344076 5.596940827352568
126 11 2 0.0 2.263212281022053 2.7038151127673666 5.877839170526861
127 11 1 0.0 2.1220203197662824 2.6589597423656555 6.31158459975965
128 11 1 0.0 2.2026945161023597 2.6771600256133787 6.79004992387741
129 11 1 0.0 2.089566006300468 3.374888534417931 5.434288203802799
130 11 1 0.0 1.910880808312783 3.3584636554804077 5.89576494015346
131 11 1 0.0 2.1322721068922545 3.378792825631613 6.284814459731335
132 11 1 0.0 2.1251161619155186 3.3962586383121764 6.776252186303471
133 12 5 8.861242189860825 1.4633402992261624 4.383754451732231 4.265453144621186
134 12 6 -8.861242189860825 1.3840949329303749 4.470247501853555 4.696580493942578
135 12 3 0.0 1.5600930819460217 4.489948745582558 5.1678719075006505
136 12 3 0.0 1.9346138298100173 4.295106613122174 5.1093828390576554
137 12 1 0.0 1.6280853938059954 4.598706032418656 5.713289605891722
138 12 2 0.0 1.5426859636823147 4.305323347395355 6.051118526231885
139 12 1 0.0 1.6786001681970184 4.488018901499333 6.44890230553823
140 12 1 0.0 1.7514776982401663 4.459536961146637 6.9281165450349675
141 12 1 0.0 2.0824449523666715 4.009550174885968 5.504850743353833
142 12 1 0.0 2.267999497268707 4.208579799765208 5.918512046967665
143 12 1 0.0 2.2451154391019355 4.056670400645412 6.339447630246625
144 12 1 0.0 2.369010285726418 4.1006588804835316 6.813348866667169
145 13 5 8.861242189860825 1.6967727561646009 5.682930303078779 4.226606612918331
146 13 6 -8.861242189860825 1.8947565330920524 5.530632917904084 4.597065244446906
147 13 3 0.0 1.8717817911852033 5.457345041860702 5.094639492589164
148 13 3 0.0 1.5224242486115753 5.685510355067945 5.181473331532298
149 13 1 0.0 1.9634623982883013 5.277699541046853 5.61737625994801
150 13 2 0.0 2.1820024412998675 5.51317395698674 5.940311069148572
151 13 1 0.0 2.155504850368952 5.286450413379627 6.337773751681855
152 13 1 0.0 2.237869213564083 5.252023989647535 6.815057289709682
153 13 1 0.0 1.5376321144896827 5.922238636656729 5.632605047391839
154 13 1 0.0 1.4672905391941589 5.680790234434886 6.059118454766486
155 13 1 0.0 1.6362364153328302 5.76942594337647 6.464566247910899
156 13 1 0.0 1.6604814081660897 5.667961919823613 6.945174751275617
157 14 5 8.861242189860825 1.4620814128444803 7.064629463075682 4.381705446392825
158 14 6 -8.861242189860825 1.351404457247797 7.059219458686542 4.814548386134128
159 14 3 0.0 1.500522448706631 7.09299524518477 5.294237978292096
160 14 3 0.0 1.9224420572947598 7.076837384846869 5.236160566781363
161 14 1 0.0 1.5140317734114572 7.1543598994986235 5.850999547527247
162 14 2 0.0 1.555096973124204 6.8138276173346295 6.150743198222081
163 14 1 0.0 1.6009283648871109 6.987419757023126 6.572462920460568
164 14 1 0.0 1.6759447098278117 6.934484221184768 7.049263738082692
165 14 1 0.0 2.172349041434885 6.831921934714085 5.606773984114252
166 14 1 0.0 2.2565541129031232 7.038707193856907 6.04871099021482
167 14 1 0.0 2.295649421193435 6.841862370784087 6.449348711140636
168 14 1 0.0 2.3872691795141323 6.875992448665702 6.931332381951737
169 15 5 8.861242189860825 1.868265643323385 8.633814324905567 4.253596274795126
170 15 6 -8.861242189860825 1.669256712494088 8.549655472746089 4.644677340796681
171 15 3 0.0 1.697632894213829 8.549569170632415 5.147344098020514
172 15 3 0.0 2.1144537269801127 8.626205342671359 5.192482870676454
173 15 1 0.0 1.5741334059457088 8.538945315269698 5.693756559193364
174 15 2 0.0 1.624116888947382 8.177334357175114 5.966215745803157
175 15 1 0.0 1.5356355027251896 8.29984023596891 6.398934621645917
176 15 1 0.0 1.5139168896875927 8.20107039579014 6.873846679996371
177 15 1 0.0 2.3254347914278872 8.390075663442499 5.591883857874381
178 15 1 0.0 2.261423340925692 8.549864268148445 6.056134965392284
179 15 1 0.0 2.2548821379646915 8.31414278268119 6.437159249241029
180 15 1 0.0 2.228108592892383 8.302554942807793 6.928093257546444
181 16 5 8.861242189860825 1.6914762952439713 9.649325329324226 4.330901646904984
182 16 6 -8.861242189860825 1.66043351846054 9.39618059472202 4.697760961199015
183 16 3 0.0 1.6053395627627445 9.37312714871754 5.197673232130483
184 16 3 0.0 1.6546128408428096 9.78601845339101 5.291177953305031
185 16 1 0.0 1.5082398463338655 9.199206482810983 5.721366667902097
186 16 2 0.0 1.8301529377831056 9.10417711425049 6.029321571450845
187 16 1 0.0 1.632556973272682 9.016928762829032 6.433581180539974
188 16 1 0.0 1.6588124423906825 8.91796756172859 6.908224176554909
189 16 1 0.0 1.8911677166626988 9.870161934954668 5.734746492292076
190 16 1 0.0 1.6618583259675905 9.814734060470702 6.170066959178365
191 16 1 0.0 1.8339149407856539 9.695760604577673 6.5663354906311335
192 16 1 0.0 1.774318345038024 9.61821406866994 7.04831275337648
193 17 5 8.861242189860825 3.280416415215031 0.6317804165989024 4.364034121368782
194 17 6 -8.861242189860825 3.2554669856362923 0.46303213353455713 4.776990789868111
195 17 3 0.0 3.179033425108887 0.5442616168942932 5.267947779647443
196 17 3 0.0 3.1854848495362718 0.9704164876026404 5.268737453032687
197 17 1 0.0 3.073615852362655 0.48001636445902346 5.81447431196408
198 17 2 0.0 3.387920761283892 0.48736613264937767 6.144100231895587
199 17 1 0.0 3.1802278156412767 0.471074906487603 6.5523654739109976
200 17 1 0.0 3.1929117050311255 0.48128196365816867 7.037652582313585
201 17 1 0.0 3.3919080292856036 1.1727148851562286 5.688566242841514
202 17 1 0.0 3.1482593767296834 1.1909050103822767 6.119220870440955
203 17 1 0.0 3.311529437714639 1.1792307318578064 6.536346162573209
204 17 1 0.0 3.2364999702094197 1.2031962869996777 7.021798047348742
205 18 5 8.861242189860825 3.0455278012075255 1.78070181804696 4.102797843050599
206 18 6 -8.861242189860825 2.951268197311301 1.9353263805392809 4.511255966826976
207 18 3 0.0 3.027693646539831 1.9047347335620732 5.007947406052989
208 18 3 0.0 3.247295926183108 1.539699688214284 5.021156218757376
209 18 1 0.0 3.0482820690348396 2.01268409738239 5.557360383093196
210 18 2 0.0 2.765091646243044 1.8387428495054998 5.868876785038849
211 18 1 0.0 2.9063957693432365 1.9607044407745235 6.287494494419946
212 18 1 0.0 2.870207603949651 1.9432536296238825 6.771389657160299
213 18 1 0.0 3.152698477662487 1.2570244004383144 5.434601968471991
214 18 1 0.0 3.34123842869507 1.3686540248590724 5.8786182616833775
215 18 1 0.0 3.1703205554481233 1.2903906256189528 6.285372280561665
216 18 1 0.0 3.215657513986525 1.3076716090374534 6.774773168446096
217 19 5 8.861242189860825 3.0998521286838883 2.7821715724053315 4.369803620756294
218 19 6 -8.861242189860825 3.0551996603031015 2.662633938513085 4.797995841940285
219 19 3 0.0 3.1264513136229146 2.7766375025372767 5.283181861157599
220 19 3 0.0 3.376326710395302 3.1188349680425547 5.237210141815683
221 19 1 0.0 3.1007337896430256 2.7898540816048865 5.842731232194973
222 19 2 0.0 3.4140093376401945 2.614611200117659 6.123165191390821
223 19 1 0.0 3.309828764746055 2.725506706624951 6.55552021498301
224 19 1 0.0 3.410628188075339 2.7297802760668666 7.030483219340813
225 19 1 0.0 3.730935193651647 3.165474201800949 5.60034784162112
226 19 1 0.0 3.621689325329133 3.325512299854789 6.055992552165023
227 19 1 0.0 3.8184986714850027 3.223622438829981 6.4454427395004
228 19 1 0.0 3.8570472574667445 3.29028000400386 6.931177313916708
229 20 5 8.861242189860825 2.8076823606892765 4.231551432468355 4.242485711268302
230 20 6 -8.861242189860825 2.9633979603004987 4.028615478438019 4.608820691485928
231 20 3 0.0 2.947971021240636 3.980052134450838 5.109702608834713
232 20 3 0.0 2.7060499458477 4.318056381698026 5.203923309390552
233 20 1 0.0 3.0043945251810915 3.792379961327665 5.6346093731924745
234 20 2 0.0 3.31120534020667 3.9442450143903462 5.935107245725277
235 20 1 0.0 3.2327637568384984 3.7508034201485674 6.343163049719481
236 20 1 0.0 3.328102442036905 3.701287109274268 6.816689514354691
237 20 1 0.0 2.8312284797398397 4.545336231981031 5.64263231072386
238 20 1 0.0 2.7084954295802808 4.354147381463782 6.082566824779409
239 20 1 0.0 2.923072723889154 4.387847177187922 6.4744951593824975
240 20 1 0.0 2.9409389035513063 4.295966090844466 6.9573056468992025
241 21 5 8.861242189860825 3.002317691203548 6.148701125368139 4.174212002059221
242 21 6 -8.861242189860825 3.103447424805233 6.28026626322272 4.589055416632107
243 21 3 0.0 3.148276868852435 6.1611724788308475 5.076175602439069
244 21 3 0.0 2.9642046523475107 5.776816635307616 5.069993131237784
245 21 1 0.0 3.2813317652643 6.160574888450708 5.620443555801008
246 21 2 0.0 2.99912812054503 6.276180687571437 5.958809103798951
247 21 1 0.0 3.202363930793065 6.193087421143918 6.361143524479923
248 21 1 0.0 3.1958569577335965 6.175871900300752 6.846354744250842
249 21 1 0.0 2.700165667854432 5.667851671859697 5.492132249244605
250 21 1 0.0 2.92206159598437 5.537814182637317 5.915229641457038
251 21 1 0.0 2.786648745416797 5.605226660054478 6.337018485215572
252 21 1 0.0 2.854046984569496 5.538875986755981 6.819638798475845
253 22 5 8.861242189860825 3.363340150852087 7.066345769495698 4.357834287457643
254 22 6 -8.861242189860825 3.212417385404231 7.2170542093773475 4.750442173457841
255 22 3 0.0 3.255170345308882 7.220028700821209 5.252081905511643
256 22 3 0.0 3.534468341565411 6.901524391502932 5.29896316533282
257 22 1 0.0 3.2145339123159102 7.351093562372738 5.795315050680744
258 22 2 0.0 2.9439426254053664 7.140982295829573 6.095529062803519
259 22 1 0.0 3.0291798896730864 7.302592398909428 6.515884929802109
260 22 1 0.0 2.9600756502576133 7.297616765793814 6.9964767418607305
261 22 1 0.0 3.4605015071588134 6.6226105817372725 5.719114778054694
262 22 1 0.0 3.5919942912753653 6.783593414863837 6.168506733906922
263 22 1 0.0 3.4073470529103345 6.691500834777429 6.566264530796828
264 22 1 0.0 3.4116473084907106 6.735616675703713 7.056063062481849
265 23 5 8.861242189860825 2.962861884276112 8.201889207684424 4.334015456595855
266 23 6 -8.861242189860825 2.786184246440693 8.253955670271232 4.741085183908176
267 23 3 0.0 2.857403831715623 8.365985635462152 5.226735409407513
268 23 3 0.0 3.2835152928438416 8.36486646800788 5.235566516304732
269 23 1 0.0 2.7818273564597154 8.509067046929825 5.763156394931512
270 23 2 0.0 2.786506798589109 8.219026125321424 6.114367454793012
271 23 1 0.0 2.760319000858223 8.454911870409203 6.506482726201627
272 23 1 0.0 2.7616229718389045 8.476776887749963 6.991548560212076
273 23 1 0.0 3.4802253480697485 8.191226122476522 5.672539705550582
274 23 1 0.0 3.4876964829337354 8.464986632743992 6.08504221461302
275 23 1 0.0 3.470057690136506 8.331555193451209 6.51244347212922
276 23 1 0.0 3.484144851358539 8.44108783248612 6.991683969305997
277 24 5 8.861242189860825 3.48985160510919 9.559068840523606 4.389303822210869
278 24 6 -8.861242189860825 3.6417725720283136 9.52004954549026 4.807668712655793
279 24 3 0.0 3.5420383104110167 9.420426713071206 5.2909982609718735
280 24 3 0.0 3.116194239707845 9.416979457519412 5.273817976755415
281 24 1 0.0 3.586008458388924 9.292797221500619 5.834789495361011
282 24 2 0.0 3.5570555123096663 9.592178841467488 6.176881901728757
283 24 1 0.0 3.561455926983411 9.367317103562508 6.576256546310149
284 24 1 0.0 3.5306730837277143 9.358592967672644 7.060761395266227
285 24 1 0.0 2.8914475733403306 9.600169432941206 5.693009761508613
286 24 1 0.0 2.8613694248413686 9.337622209038994 6.111725912409177
287 24 1 0.0 2.851531710172067 9.482778411267214 6.535541682826326
288 24 1 0.0 2.8091884723162606 9.386122398692455 7.015887357003296
289 25 5 8.861242189860825 4.348075556722186 0.46779883304197417 4.138505721231177
290 25 6 -8.861242189860825 4.368790722915157 0.36199059437559417 4.572103652097376
291 25 3 0.0 4.228823869679386 0.4657098963374828 5.0444707448872785
292 25 3 0.0 4.049153478816453 0.8468778705207476 4.980597868062819
293 25 1 0.0 4.122057792139571 0.4349289031865964 5.593638390308633
294 25 2 0.0 4.376725335922579 0.6239791427221185 5.920592960593593
295 25 1 0.0 4.167462101794331 0.5722370405084131 6.325085142542955
296 25 1 0.0 4.138784795044895 0.6514823992589559 6.803275928570852
297 25 1 0.0 4.11557266865176 1.173361265576171 5.366328949928962
298 25 1 0.0 3.8573978473479014 1.139339982271169 5.787455140930982
299 25 1 0.0 3.9783800733625525 1.2565237417215793 6.202687820809534
300 25 1 0.0 3.8649904423331005 1.3093074051265552 6.6783179057621656
301 26 5 8.861242189860825 3.9800520279222633 1.7079705498887583 4.246569992670068
302 26 6 -8.861242189860825 3.838652107854379 1.7037453617174712 4.670385845985215
303 26 3 0.0 3.934757035845649 1.8055356532873854 5.153998979918604
304 26 3 0.0 4.351108084824086 1.8917361312260441 5.124477802649612
305 26 1 0.0 3.886729404881552 1.905126202348766 5.703277267157283
306 26 2 0.0 3.9849638062756987 1.6063897798836815 6.032824523602588
307 26 1 0.0 3.9518593003704474 1.8135114200320979 6.44036223894739
308 26 1 0.0 3.9978441610834863 1.8128020742626612 6.923739454030667
309 26 1 0.0 4.6218234466297865 1.7423534359938433 5.52968069848143
310 26 1 0.0 4.615991667700382 1.992486052329603 5.956949489080994
311 26 1 0.0 4.668803460323533 1.838731973273362 6.374510872188931
312 26 1 0.0 4.709086265292837 1.9266175854136398 6.8567148913157165
313 27 5 8.861242189860825 4.138911471011943 3.5482450246818407 4.194954242143741
314 27 6 -8.861242189860825 4.357774020624993 3.5463649249064004 4.584476150042697
315 27 3 0.0 4.375922244798375 3.393211134130877 5.063739795946921
316 27 3 0.0 3.981567573535467 3.2357521608427855 5.100363330372602
317 27 1 0.0 4.545928796951335 3.263331456072811 5.5815820586899525
318 27 2 0.0 4.466604046632007 3.5140827711702016 5.9535043676724015
319 27 1 0.0 4.612019324147338 3.2865931879879664 6.323889516087095
320 27 1 0.0 4.661877337096432 3.2430279001834936 6.804914345894417
321 27 1 0.0 3.7745768934662074 3.3032755416813773 5.561217792158002
322 27 1 0.0 3.904486079105301 3.027213678428264 5.951182413584966
323 27 1 0.0 3.909926437076208 3.1374160136085054 6.385478117864304
324 27 1 0.0 3.9795161940279176 3.0080750660099396 6.8548345775633255
325 28 5 8.861242189860825 4.886119966553243 4.169135797293139 4.057563995242334
326 28 6 -8.861242189860825 4.875882390664076 4.000965911170533 4.471382492379613
327 28 3 0.0 4.71164254701484 4.042245871432852 4.945513616219617
328 28 3 0.0 4.552045313014195 4.437080318895793 4.928640552312221
329 28 1 0.0 4.570280616015143 3.9378705608061617 5.477541967556128
330 28 2 0.0 4.812011673741668 4.064889713875375 5.842133619187274
331 28 1 0.0 4.576427044185389 3.9657618364828036 6.222601512442325
332 28 1 0.0 4.521810792689686 3.976493200336888 6.704960865570541
333 28 1 0.0 4.60809346000605 4.70077952264905 5.361205829122087
334 28 1 0.0 4.32344075126852 4.619190848610662 5.758037126398288
335 28 1 0.0 4.423490891670321 4.669077539004868 6.191959006990416
336 28 1 0.0 4.283461675712642 4.658229084822838 6.663277827938223
337 29 5 8.861242189860825 4.529630576241696 5.740022963418616 4.071971884670918
338 29 6 -8.861242189860825 4.61402955175519 5.955817275222588 4.453994521509176
339 29 3 0.0 4.633639340167582 5.942676352123459 4.956907890086204
340 29 3 0.0 4.442128605889439 5.56773747096102 5.0232003658172495
341 29 1 0.0 4.741153418761554 6.056560641381205 5.494869467891324
342 29 2 0.0 4.445949684483652 6.244450677702865 5.786497538341612
343 29 1 0.0 4.628455764345682 6.246798050399093 6.20693575284201
344 29 1 0.0 4.598996321453972 6.333320237257226 6.683815921284437
345 29 1 0.0 4.156508872029288 5.55385774727478 5.445124653389047
346 29 1 0.0 4.3557105875211475 5.514565374820341 5.896714888926608
347 29 1 0.0 4.202221505668544 5.671606414072147 6.287312027513508
348 29 1 0.0 4.245673492073159 5.708805848849811 6.7757743374097865
349 30 5 8.861242189860825 4.463355626840453 6.576959357695358 4.063735593862692
350 30 6 -8.861242189860825 4.55952924898077 6.477872963366107 4.488664044304379
351 30 3 0.0 4.4195993619617076 6.488543249477313 4.972177079979847
352 30 3 0.0 4.080759867479266 6.745042265556175 4.939830982547467
353 30 1 0.0 4.376147834394735 6.392837634228004 5.522526030730255
354 30 2 0.0 4.536462638011354 6.666933321474191 5.849122968758672
355 30 1 0.0 4.402225269415157 6.510179595290164 6.258379452833456
356 30 1 0.0 4.372461633948623 6.55053738380331 6.741343237767715
357 30 1 0.0 4.015112726432456 7.051590085793655 5.341714386438383
358 30 1 0.0 3.8305392661280293 6.887292572844864 5.770780721415809
359 30 1 0.0 3.9115461265383527 7.032760100233544 6.186790334251141
360 30 1 0.0 3.8188142942434373 7.010526234937489 6.669256668592427
361 31 5 8.861242189860825 4.01528071588816 8.092050226559026 4.14580222414679
362 31 6 -8.861242189860825 3.8841514330592015 8.057923977659803 4.571562928595151
363 31 3 0.0 3.938521945117593 8.20861401614487 5.048863089578622
364 31 3 0.0 4.298547908832084 8.433249683759215 5.009235566610935
365 31 1 0.0 3.8585892131804598 8.309920974064019 5.594096274805329
366 31 2 0.0 4.054895245939677 8.07947189711842 5.934466670686626
367 31 1 0.0 3.9514234494207696 8.280229897020373 6.333305089545667
368 31 1 0.0 3.99463280896635 8.317475245368158 6.815502536575403
369 31 1 0.0 4.604283634199066 8.406211382034005 5.416158139119589
370 31 1 0.0 4.5113383313850015 8.657638952207906 5.832456472604265
371 31 1 0.0 4.61441880555158 8.551031850478415 6.255299531712426
372 31 1 0.0 4.621340284954522 8.669163912616167 6.732650775847653
373 32 5 8.861242189860825 4.497623092086779 8.97479966574024 4.113989348405119
374 32 6 -8.861242189860825 4.7214688389601 9.079801011796766 4.486144512368453
375 32 3 0.0 4.7454863768427815 9.065414746657893 4.988832563951517
376 32 3 0.0 4.351339994834784 8.926398165957623 5.0723384806883365
377 32 1 0.0 4.9218888424991 9.08326984842664 5.520335088010835
378 32 2 0.0 4.847820488549678 9.427718684599462 5.809062849332021
379 32 1 0.0 4.997555776657083 9.311045256713719 6.226254563389533
380 32 1 0.0 5.053508763421 9.402268856961875 6.699874833941632
381 32 1 0.0 4.150415285466857 9.120141589318107 5.498817238204925
382 32 1 0.0 4.284806203819662 8.962311260248477 5.94847001881562
383 32 1 0.0 4.296033462777962 9.188557840941293 6.3350878460178945
384 32 1 0.0 4.371405590956125 9.194028293768254 6.821047121780026
385 33 5 8.861242189860825 5.255340686006654 0.5943111940352348 4.343309168022252
386 33 6 -8.861242189860825 5.198072328007272 0.36109492932106557 4.720087851305102
387 33 3 0.0 5.211773397460362 0.3519438299757919 5.22328524997841
388 33 3 0.0 5.404478286055766 0.7255702218570617 5.293416295107245
389 33 1 0.0 5.141032135683892 0.21344991641814667 5.761566475194363
390 33 2 0.0 5.456316127177104 0.016000087563928345 6.024443655163792
391 33 1 0.0 5.302127363920674 10.057191917263422 6.455481260588084
392 33 1 0.0 5.363799180076397 9.95012890942784 6.925058455619034
393 33 1 0.0 5.717349570934161 0.723866330900828 5.695784334838373
394 33 1 0.0 5.548260740389937 0.7412371847955221 6.160828607613583
395 33 1 0.0 5.72848356225326 0.5687962102992173 6.5330795387392175
396 33 1 0.0 5.717809701541111 0.5097439446324631 7.021204727473228
397 34 5 8.861242189860825 5.5258716597457465 2.097774709302189 4.272388057289746
398 34 6 -8.861242189860825 5.653718815589648 1.9070698047945742 4.6556874328056725
399 34 3 0.0 5.607080854418445 1.8807325372529144 5.1562973936246745
400 34 3 0.0 5.369508785069085 2.2285417960366325 5.221400770334558
401 34 1 0.0 5.6268162963897215 1.7146842163076477 5.691059055556121
402 34 2 0.0 5.919273606940022 1.871635346061814 6.003036468728465
403 34 1 0.0 5.811248263628931 1.698167056270665 6.4133065617122424
404 34 1 0.0 5.876740888170443 1.6668787122094264 6.893411131888836
405 34 1 0.0 5.474588939522714 2.471428235821901 5.657010368543043
406 34 1 0.0 5.320529136980848 2.302719288952224 6.096284569137334
407 34 1 0.0 5.512195639751786 2.3479693909096624 6.498780893242183
408 34 1 0.0 5.4986462658830195 2.2767390604578996 6.985206587208887
409 35 5 8.861242189860825 5.538150135429611 2.780739672832852 4.308413869076118
410 35 6 -8.861242189860825 5.296930098763567 2.836863619200154 4.680293774000443
411 35 3 0.0 5.287917479428617 2.9496653149509604 5.17087876570263
412 35 3 0.0 5.706541572545202 2.9424392033273867 5.250577387163521
413 35 1 0.0 5.126179758018498 3.0958195120072265 5.6870293520494135
414 35 2 0.0 5.067994010904086 2.807052506398045 6.0344813303994815
415 35 1 0.0 4.98036154074624 3.0447511674560572 6.416452753758252
416 35 1 0.0 4.901178033294328 3.068403162732612 6.894928665288741
417 35 1 0.0 5.82512398158782 2.767612541602454 5.714436454293488
418 35 1 0.0 5.767842423763635 3.042772767150783 6.122069412026661
419 35 1 0.0 5.677284690824831 2.911203503291935 6.540728864018542
420 35 1 0.0 5.612974680584372 3.0223074967838723 7.015478720756285
421 36 5 8.861242189860825 5.491621896617354 4.3909020485340395 4.305438256940229
422 36 6 -8.861242189860825 5.284222105975109 4.399873339477947 4.70108520803664
423 36 3 0.0 5.321327649471666 4.398386943668904 5.2031808694641155
424 36 3 0.0 5.735437494381697 4.304950669582575 5.241034763888602
425 36 1 0.0 5.215734161988913 4.448087466890081 5.75118765867662
426 36 2 0.0 5.124913854801662 4.10154275567835 6.032529580346183