Lipid soup setup

4400 atoms
1408 bonds
1024 angles
0 dihedrals
0 impropers

6 atom types
2 bond types
3 angle types
0 dihedral types
0 improper types

0 7.956194443730493 xlo xhi
0 7.956194443730493 ylo yhi
0 23.169712499999996 zlo zhi

Masses

1 1
2 1
3 1
4 1
5 1
6 1

Atoms

1 1 5 8.861242189860825 0.3897964366721949 0.5144192970223587 8.378636835932635
2 1 6 -8.861242189860825 0.5259332646368915 0.32940775444853365 8.761871959998395
3 1 3 0.0 0.48101307469823823 0.3013977698128144 9.262548203944071
4 1 3 0.0 0.22920835619447685 0.6390222432070229 9.327773329426286
5 1 1 0.0 0.5082783395222079 0.13658544702095127 9.797361321977144
6 1 2 0.0 0.7942909133538296 0.30576082372533686 10.108924062821217
7 1 1 0.0 0.6940726997779619 0.12814096776547607 10.51939911443084
8 1 1 0.0 0.7613682806250288 0.09985337941645667 10.999440529093924
9 1 1 0.0 0.3245635869940936 0.8863003428507061 9.763149379455085
10 1 1 0.0 0.17818591734902745 0.7115290973328947 10.202680429996796
11 1 1 0.0 0.36826162882366653 0.7649398928681634 10.604930876556171
12 1 1 0.0 0.35825829999431863 0.693449708914966 11.091404296457158
13 2 5 8.861242189860825 0.4723559623045005 1.6694064907492732 8.713800733647519
14 2 6 -8.861242189860825 0.32181132394982415 1.5111193723175582 9.103561130728568
15 2 3 0.0 0.304799072482271 1.5552288885503343 9.604803604819386
16 2 3 0.0 0.6051484250558348 1.8529670919650116 9.657647213001333
17 2 1 0.0 0.16390548189818915 1.508676166941139 10.145093719362794
18 2 2 0.0 0.38262689648791903 1.2519053805990379 10.45123837150661
19 2 1 0.0 0.2066630019238832 1.3288124765432603 10.867416552050408
20 2 1 0.0 0.2046532122364319 1.2616612159822753 11.34830667629748
21 2 1 0.0 0.8782043946962408 1.7969180786942327 10.08436764735857
22 2 1 0.0 0.6994764335492302 1.9201299713207227 10.529377872230425
23 2 1 0.0 0.7931144351625643 1.7425079438829207 10.929964006479056
24 2 1 0.0 0.7375787069925811 1.7457684418270087 11.418607489306034
25 3 5 8.861242189860825 0.25183324302171683 2.3070432469676003 8.467137292869912
26 3 6 -8.861242189860825 0.39019399628773854 2.4678335691755633 8.860373152592105
27 3 3 0.0 0.47385765200626795 2.385857232479602 9.350025434204976
28 3 3 0.0 0.2827035984543996 2.006999584228578 9.38973976992948
29 3 1 0.0 0.6524893820093657 2.4241734703919278 9.8796990493479
30 3 2 0.0 0.40218472876557626 2.572882486975545 10.230024684873436
31 3 1 0.0 0.6371568967489709 2.5161594115270276 10.619450986684585
32 3 1 0.0 0.6714383816029675 2.5368798267768793 11.103356025753161
33 3 1 0.0 0.05335184392517822 1.9379386267230738 9.839650583742296
34 3 1 0.0 0.30778623795994503 1.835566879005596 10.251890949575504
35 3 1 0.0 0.20987399501634818 1.9389872777407613 10.676748954956985
36 3 1 0.0 0.3166354910270982 1.9086524396862063 11.155861761954714
37 4 5 8.861242189860825 0.6613192015703108 3.6286453059535697 8.398719769355285
38 4 6 -8.861242189860825 0.8393221637585193 3.6179976286594644 8.808394322570392
39 4 3 0.0 0.8082643319753561 3.4550195240299084 9.283739073726071
40 4 3 0.0 0.4119786145588272 3.298307835469514 9.276718024668929
41 4 1 0.0 0.9243770790240298 3.313959675617572 9.813410213933773
42 4 2 0.0 0.8079468684018078 3.5573535508951024 10.180422842445358
43 4 1 0.0 0.9144746802805758 3.3218081214589796 10.558909893116232
44 4 1 0.0 0.914957575279175 3.2682414085351246 11.04150601486488
45 4 1 0.0 0.15918650218993213 3.3571697493737895 9.715378265126754
46 4 1 0.0 0.2482148066118291 3.0727200177985434 10.110753107573009
47 4 1 0.0 0.20952277120691998 3.174006947555686 10.54552982634497
48 4 1 0.0 0.2306866564553321 3.03484828993216 11.016756161802894
49 5 5 8.861242189860825 0.29641171011480544 4.243565730356902 8.741028852237594
50 5 6 -8.861242189860825 0.26281647630960525 4.4178973095009875 9.151042910423698
51 5 3 0.0 0.43201049617659093 4.430967896044347 9.625048846424114
52 5 3 0.0 0.6880348071765592 4.090354678629799 9.615861540554208
53 5 1 0.0 0.5415220577705099 4.580127670602363 10.153906244180154
54 5 2 0.0 0.340618430315595 4.403262480440926 10.522486329018914
55 5 1 0.0 0.5425624462431095 4.568258125369194 10.899417785842612
56 5 1 0.0 0.5979604488038044 4.5827571004918015 11.38158941885368
57 5 1 0.0 0.7017613742450677 3.830858542815657 10.054341551953772
58 5 1 0.0 0.9556321565431036 3.99192917139264 10.447743170310975
59 5 1 0.0 0.8717064232432412 3.9276473172779838 10.883186881312959
60 5 1 0.0 1.0040665727579126 3.984765562188996 11.353384284727984
61 6 5 8.861242189860825 0.8157617844425844 5.177638788085751 8.654471275686248
62 6 6 -8.861242189860825 0.7979668009512686 5.417624844639514 9.030930700264584
63 6 3 0.0 0.7342703183423795 5.425208052900694 9.530294632693321
64 6 3 0.0 0.5983227142358557 5.025429345126453 9.5881345154534
65 6 1 0.0 0.7292991635936694 5.574147768160746 10.070409265404699
66 6 2 0.0 0.3623781030823429 5.71837575878616 10.298580394228066
67 6 1 0.0 0.4683978513612632 5.766374598634167 10.741906680281108
68 6 1 0.0 0.34508701345540793 5.862764668162406 11.201550057693618
69 6 1 0.0 0.2517519820335661 4.977095583677604 9.9587339739364
70 6 1 0.0 0.3755568131946778 4.988028312308343 10.438016556602122
71 6 1 0.0 0.13471713616371944 5.129600934092752 10.78835975071074
72 6 1 0.0 0.08839234248641165 5.190348960502452 11.274189959773096
73 7 5 8.861242189860825 0.15506933490536087 6.626770189010965 8.40882498811171
74 7 6 -8.861242189860825 0.007811038215628757 6.7547167016032965 8.810790597465337
75 7 3 0.0 0.0957488922465854 6.796401233665418 9.304762679237335
76 7 3 0.0 0.452204605614947 6.564208459233594 9.330763798412287
77 7 1 0.0 0.07385563088528527 6.94230227987063 9.84528570136814
78 7 2 0.0 7.854139486522784 6.686208640136574 10.178401829226985
79 7 1 0.0 7.933364732851622 6.88737250979779 10.582553693560829
80 7 1 0.0 7.914011094085622 6.891253426881755 11.067712448812124
81 7 1 0.0 0.4945729479570099 6.299332278892602 9.764165363012683
82 7 1 0.0 0.6211290145270266 6.513478235494373 10.19228219999332
83 7 1 0.0 0.5059196414493264 6.398844318696885 10.609861864733148
84 7 1 0.0 0.5449834082385487 6.46958599589359 11.094977251513578
85 8 5 8.861242189860825 0.978039966325304 7.063943743303645 8.623863461426417
86 8 6 -8.861242189860825 1.0771646850915217 7.003254412093748 9.055282935185247
87 8 3 0.0 0.9436344220268339 7.063253170241059 9.536997479102727
88 8 3 0.0 0.6106432467991898 7.323914719409226 9.483868839976457
89 8 1 0.0 0.9048464123333428 7.0213200654324295 10.094374077692363
90 8 2 0.0 1.0757714422133287 7.321077339706414 10.391737580219974
91 8 1 0.0 0.9429931559623808 7.207271401607925 10.815412463486904
92 8 1 0.0 0.9202917311866088 7.294008441500106 11.292623081423864
93 8 1 0.0 0.5574134970253672 7.668760030600438 9.855405767658446
94 8 1 0.0 0.3743868045025013 7.550584784463309 10.300034596959287
95 8 1 0.0 0.4640845220211954 7.732801833896952 10.699456901415548
96 8 1 0.0 0.37693523459275285 7.758776120274164 11.182776298302743
97 9 5 8.861242189860825 1.5454368421386637 0.9753603874129688 8.771627629637567
98 9 6 -8.861242189860825 1.357338139861018 0.899983069826606 9.169834617680825
99 9 3 0.0 1.4132316587962084 0.8636587446947912 9.668869227602551
100 9 3 0.0 1.8388411667135864 0.86898137771997 9.690742376384843
101 9 1 0.0 1.320265008353072 0.8387271625032369 10.220835880349831
102 9 2 0.0 1.3249695415717504 0.4573591640193708 10.469896433337926
103 9 1 0.0 1.2821298130426768 0.5650474522881409 10.913349093479637
104 9 1 0.0 1.2708651268831082 0.4413708690048145 11.38275920440714
105 9 1 0.0 2.029852388606832 0.5772018819976441 10.062455737094131
106 9 1 0.0 2.0190153447654207 0.7156711707021757 10.537711215113385
107 9 1 0.0 1.9948730615572667 0.46057784615012975 10.905313523131163
108 9 1 0.0 1.9939088272003294 0.42257089800558084 11.395641824786631
109 10 5 8.861242189860825 1.6225936638144633 1.8515243865509154 8.792725880750464
110 10 6 -8.861242189860825 1.5391565675390393 2.0230005180380823 9.196787577062864
111 10 3 0.0 1.4908959617064024 1.9461286674744764 9.692005424550777
112 10 3 0.0 1.4930540705419841 1.5199461359495274 9.695748508691626
113 10 1 0.0 1.4537230689729488 2.0156366726798165 10.24672912233953
114 10 2 0.0 1.0666476865261232 2.0030649050107323 10.486540383368803
115 10 1 0.0 1.164265607042169 2.026164899052262 10.933775672033358
116 10 1 0.0 1.0297854286515753 2.018283507786109 11.400274983865245
117 10 1 0.0 1.191528608939091 1.315361497831746 10.052145626236502
118 10 1 0.0 1.318979871907751 1.3049094074755314 10.530482206685612
119 10 1 0.0 1.0555674658595766 1.3151870583765064 10.892828981421342
120 10 1 0.0 1.0061817044056658 1.2955033378470067 11.381747071668805
121 11 5 8.861242189860825 1.482904394941427 2.1478596044351286 8.477973806731395
122 11 6 -8.861242189860825 1.5456311535516758 1.9824732202029791 8.8882717043575
123 11 3 0.0 1.5285515189818852 2.0562709555934204 9.386007843581059
124 11 3 0.0 1.4654026111949976 2.477745210907761 9.39068607424987
125 11 1 0.0 1.514939808822811 1.9825200344295972 9.941261921102566
126 11 2 0.0 1.8680215430191662 2.045163882762556 10.222160264276859
127 11 1 0.0 1.7268295817633954 2.000308512360845 10.655905693509649
128 11 1 0.0 1.807503778099473 2.018508795608568 11.134371017627407
129 11 1 0.0 1.6943752682975817 2.7162373044131205 9.778609297552796
130 11 1 0.0 1.5156900703098963 2.699812425475597 10.240086033903458
131 11 1 0.0 1.7370813688893678 2.7201415956268025 10.629135553481332
132 11 1 0.0 1.729925423912632 2.737607408307366 11.120573280053469
133 12 5 8.861242189860825 1.0681495612232756 3.4616427297254955 8.609774238371182
134 12 6 -8.861242189860825 0.9889041949274882 3.5481357798468194 9.040901587692575
135 12 3 0.0 1.164902343943135 3.5678370235758234 9.512193001250647
136 12 3 0.0 1.5394230918071306 3.372994891115439 9.453703932807652
137 12 1 0.0 1.2328946558031086 3.6765943104119208 10.05761069964172
138 12 2 0.0 1.147495225679428 3.383211625388619 10.395439619981882
139 12 1 0.0 1.2834094301941317 3.5659071794925974 10.793223399288225
140 12 1 0.0 1.3562869602372796 3.5374252391399015 11.272437638784965
141 12 1 0.0 1.6872542143637848 3.0874384528792325 9.849171837103828
142 12 1 0.0 1.8728087592658205 3.286468077758473 10.262833140717662
143 12 1 0.0 1.8499247010990487 3.1345586786386765 10.683768723996621
144 12 1 0.0 1.973819547723531 3.178547158476796 11.157669960417165
145 13 5 8.861242189860825 1.3015820181617141 4.497358089070119 8.570927706668328
146 13 6 -8.861242189860825 1.4995657950891657 4.345060703895424 8.941386338196903
147 13 3 0.0 1.4765910531823165 4.2717728278520415 9.43896058633916
148 13 3 0.0 1.1272335106086886 4.4999381410592845 9.525794425282296
149 13 1 0.0 1.5682716602854145 4.092127327038193 9.961697353698007
150 13 2 0.0 1.7868117032969808 4.3276017429780795 10.284632162898568
151 13 1 0.0 1.760314112366065 4.100878199370967 10.682094845431852
152 13 1 0.0 1.8426784755611965 4.066451775638875 11.15937838345968
153 13 1 0.0 1.142441376486796 4.736666422648069 9.976926141141835
154 13 1 0.0 1.0720998011912721 4.4952180204262255 10.403439548516483
155 13 1 0.0 1.2410456773299434 4.58385372936781 10.808887341660897
156 13 1 0.0 1.265290670163203 4.482389705814953 11.289495845025613
157 14 5 8.861242189860825 1.0668906748415936 5.615596757065098 8.726026540142822
158 14 6 -8.861242189860825 0.9562137192449103 5.610186752675958 9.158869479884125
159 14 3 0.0 1.1053317107037444 5.643962539174186 9.638559072042094
160 14 3 0.0 1.527251319291873 5.627804678836285 9.580481660531362
161 14 1 0.0 1.1188410354085705 5.705327193488039 10.195320641277245
162 14 2 0.0 1.1599062351213172 5.364794911324045 10.495064291972078
163 14 1 0.0 1.2057376268842241 5.538387051012542 10.916784014210567
164 14 1 0.0 1.280753971824925 5.485451515174184 11.39358483183269
165 14 1 0.0 1.7771583034319982 5.382889228703501 9.95109507786425
166 14 1 0.0 1.8613633749002363 5.589674487846323 10.393032083964817
167 14 1 0.0 1.900458683190548 5.392829664773503 10.793669804890634
168 14 1 0.0 1.9920784415112458 5.426959742655118 11.275653475701736
169 15 5 8.861242189860825 1.4730749053204983 6.921321126893057 8.597917368545122
170 15 6 -8.861242189860825 1.2740659744912013 6.837162274733581 8.988998434546678
171 15 3 0.0 1.3024421562109423 6.837075972619906 9.49166519177051
172 15 3 0.0 1.7192629889772262 6.9137121446588505 9.53680396442645
173 15 1 0.0 1.178942667942822 6.826452117257189 10.03807765294336
174 15 2 0.0 1.2289261509444953 6.464841159162606 10.310536839553153
175 15 1 0.0 1.1404447647223028 6.587347037956401 10.743255715395913
176 15 1 0.0 1.118726151684706 6.488577197777631 11.218167773746368
177 15 1 0.0 1.9302440534250003 6.67758246542999 9.936204951624376
178 15 1 0.0 1.8662326029228051 6.837371070135936 10.400456059142279
179 15 1 0.0 1.8596913999618045 6.60164958466868 10.781480342991024
180 15 1 0.0 1.8329178548894962 6.5900617447952845 11.27241435129644
181 16 5 8.861242189860825 1.2962855572410845 7.673371639309792 8.675222740654982
182 16 6 -8.861242189860825 1.2652427804576534 7.4202269047075875 9.042082054949013
183 16 3 0.0 1.2101488247598577 7.397173458703107 9.54199432588048
184 16 3 0.0 1.2594221028399228 7.810064763376578 9.635499047055028
185 16 1 0.0 1.1130491083309788 7.223252792796549 10.065687761652095
186 16 2 0.0 1.4349621997802189 7.128223424236057 10.373642665200842
187 16 1 0.0 1.2373662352697952 7.040975072814598 10.777902274289971
188 16 1 0.0 1.2636217043877958 6.942013871714155 11.252545270304907
189 16 1 0.0 1.495976978659812 7.894208244940233 10.079067586042074
190 16 1 0.0 1.2666675879647038 7.838780370456268 10.514388052928362
191 16 1 0.0 1.4387242027827671 7.7198069145632395 10.910656584381131
192 16 1 0.0 1.3791276070351373 7.642260378655506 11.392633847126477
193 17 5 8.861242189860825 2.6217651852102195 0.5000501705979401 8.708355215118779
194 17 6 -8.861242189860825 2.596815755631481 0.33130188753359485 9.121311883618109
195 17 3 0.0 2.5203821951040757 0.4125313708933309 9.61226887339744
196 17 3 0.0 2.5268336195314602 0.8386862416016783 9.613058546782685
197 17 1 0.0 2.4149646223578434 0.3482861184580612 10.158795405714077
198 17 2 0.0 2.7292695312790807 0.3556358866484154 10.488421325645584
199 17 1 0.0 2.521576585636465 0.3393446604866407 10.896686567660996
200 17 1 0.0 2.534260475026314 0.3495517176572064 11.381973676063582
201 17 1 0.0 2.733256799280792 1.0409846391552664 10.032887336591513
202 17 1 0.0 2.489608146724872 1.0591747643813145 10.463541964190952
203 17 1 0.0 2.6528782077098274 1.0475004858568442 10.880667256323207
204 17 1 0.0 2.577848740204608 1.0714660409987156 11.36611914109874
205 18 5 8.861242189860825 2.3868765712027145 1.3855110800440733 8.447118936800594
206 18 6 -8.861242189860825 2.29261696730649 1.5401356425363941 8.855577060576973
207 18 3 0.0 2.36904241653502 1.5095439955591865 9.352268499802985
208 18 3 0.0 2.5886446961782967 1.1445089502113972 9.365477312507373
209 18 1 0.0 2.3896308390300285 1.6174933593795031 9.901681476843192
210 18 2 0.0 2.106440416238233 1.443552111502613 10.213197878788845
211 18 1 0.0 2.2477445393384254 1.5655137027716368 10.631815588169943
212 18 1 0.0 2.21155637394484 1.5480628916209958 11.115710750910296
213 18 1 0.0 2.494047247657676 0.8618336624354277 9.778923062221988
214 18 1 0.0 2.6825871986902587 0.9734632868561858 10.222939355433374
215 18 1 0.0 2.5116693254433122 0.8951998876160661 10.629693374311662
216 18 1 0.0 2.557006283981714 0.9124808710345668 11.119094262196093
217 19 5 8.861242189860825 2.441200898679077 2.1235203424005205 8.71412471450629
218 19 6 -8.861242189860825 2.3965484302982905 2.003982708508274 9.14231693569028
219 19 3 0.0 2.467800083618104 2.1179862725324656 9.627502954907595
220 19 3 0.0 2.717675480390491 2.4601837380377436 9.581531235565679
221 19 1 0.0 2.4420825596382145 2.1312028516000754 10.187052325944968
222 19 2 0.0 2.7553581076353835 1.9559599701128478 10.467486285140817
223 19 1 0.0 2.651177534741244 2.06685547662014 10.899841308733006
224 19 1 0.0 2.751976958070528 2.0711290460620555 11.37480431309081
225 19 1 0.0 3.0722839636468358 2.506822971796138 9.944668935371116
226 19 1 0.0 2.963038095324322 2.6668610698499777 10.400313645915018
227 19 1 0.0 3.159847441480191 2.56497120882517 10.789763833250397
228 19 1 0.0 3.198396027461933 2.631628773999049 11.275498407666703
229 20 5 8.861242189860825 2.1490311306844654 3.309439710461619 8.586806805018298
230 20 6 -8.861242189860825 2.3047467302956877 3.1065037564312834 8.953141785235925
231 20 3 0.0 2.2893197912358247 3.0579404124441023 9.45402370258471
232 20 3 0.0 2.047398715842889 3.39594465969129 9.548244403140549
233 20 1 0.0 2.3457432951762804 2.870268239320929 9.97893046694247
234 20 2 0.0 2.652554110201859 3.0221332923836104 10.279428339475274
235 20 1 0.0 2.5741125268336873 2.8286916981418315 10.687484143469478
236 20 1 0.0 2.6694512120320937 2.779175387267532 11.161010608104688
237 20 1 0.0 2.1725772497350286 3.6232245099742952 9.986953404473857
238 20 1 0.0 2.0498441995754697 3.4320356594570463 10.426887918529406
239 20 1 0.0 2.2644214938843428 3.4657354551811865 10.818816253132495
240 20 1 0.0 2.282287673546495 3.3738543688377307 11.3016267406492
241 21 5 8.861242189860825 2.3436664611987372 4.963128911359479 8.518533095809218
242 21 6 -8.861242189860825 2.444796194800422 5.09469404921406 8.933376510382104
243 21 3 0.0 2.4896256388476243 4.975600264822187 9.420496696189067
244 21 3 0.0 2.3055534223427 4.591244421298955 9.414314224987782
245 21 1 0.0 2.6226805352594895 4.975002674442048 9.964764649551004
246 21 2 0.0 2.3404768905402196 5.090608473562777 10.303130197548949
247 21 1 0.0 2.5437127007882543 5.007515207135258 10.70546461822992
248 21 1 0.0 2.537205727728786 4.990299686292092 11.190675838000839
249 21 1 0.0 2.0415144378496213 4.482279457851037 9.836453342994602
250 21 1 0.0 2.2634103659795595 4.352241968628657 10.259550735207034
251 21 1 0.0 2.1279975154119866 4.419654446045818 10.681339578965568
252 21 1 0.0 2.1953957545646854 4.353303772747321 11.163959892225842
253 22 5 8.861242189860825 2.7046889208472757 5.617313063485114 8.702155381207639
254 22 6 -8.861242189860825 2.55376615539942 5.7680215033667634 9.094763267207838
255 22 3 0.0 2.596519115304071 5.770995994810625 9.59640299926164
256 22 3 0.0 2.8758171115606 5.4524916854923475 9.643284259082817
257 22 1 0.0 2.555882682311099 5.902060856362154 10.13963614443074
258 22 2 0.0 2.2852913954005554 5.6919495898189885 10.439850156553517
259 22 1 0.0 2.3705286596682758 5.853559692898844 10.860206023552106
260 22 1 0.0 2.3014244202528022 5.84858405978323 11.340797835610728
261 22 1 0.0 2.8018502771540024 5.173577875726688 10.06343587180469
262 22 1 0.0 2.933343061270554 5.334560708853253 10.512827827656919
263 22 1 0.0 2.748695822905524 5.242468128766845 10.910585624546824
264 22 1 0.0 2.7529960784858996 5.286583969693129 11.400384156231846
265 23 5 8.861242189860825 2.304210654271301 6.489396009671916 8.678336550345852
266 23 6 -8.861242189860825 2.127533016435882 6.541462472258722 9.085406277658173
267 23 3 0.0 2.198752601710812 6.653492437449644 9.57105650315751
268 23 3 0.0 2.6248640628390305 6.652373269995371 9.579887610054728
269 23 1 0.0 2.1231761264549043 6.796573848917317 10.107477488681509
270 23 2 0.0 2.127855568584298 6.506532927308916 10.458688548543009
271 23 1 0.0 2.101667770853412 6.742418672396695 10.850803819951624
272 23 1 0.0 2.1029717418340934 6.7642836897374545 11.335869653962073
273 23 1 0.0 2.8215741180649374 6.478732924464013 10.016860799300579
274 23 1 0.0 2.8290452529289243 6.752493434731482 10.429363308363017
275 23 1 0.0 2.811406460131695 6.6190619954387 10.856764565879217
276 23 1 0.0 2.825493621353728 6.728594634473612 11.336005063055994
277 24 5 8.861242189860825 2.8312003751043795 7.5831151505091725 8.733624915960865
278 24 6 -8.861242189860825 2.983121342023503 7.544095855475826 9.151989806405789
279 24 3 0.0 2.883387080406206 7.444473023056773 9.635319354721869
280 24 3 0.0 2.457543009703034 7.4410257675049785 9.61813907050541
281 24 1 0.0 2.927357228384113 7.316843531486185 10.179110589111007
282 24 2 0.0 2.8984042823048557 7.6162251514530555 10.521202995478752
283 24 1 0.0 2.9028046969786003 7.391363413548074 10.920577640060145
284 24 1 0.0 2.8720218537229036 7.382639277658211 11.405082489016223
285 24 1 0.0 2.23279634333552 7.624215742926771 10.037330855258608
286 24 1 0.0 2.202718194836558 7.36166851902456 10.456047006159173
287 24 1 0.0 2.1928804801672563 7.50682472125278 10.879862776576323
288 24 1 0.0 2.15053724231145 7.410168708678022 11.360208450753293
289 25 5 8.861242189860825 3.4259638347154495 0.336068587041012 8.482826814981173
290 25 6 -8.861242189860825 3.4466790009084205 0.230260348374632 8.916424745847372
291 25 3 0.0 3.3067121476726493 0.3339796503365206 9.388791838637275
292 25 3 0.0 3.127041756809716 0.7151476245197854 9.324918961812816
293 25 1 0.0 3.199946070132835 0.3031986571856342 9.937959484058629
294 25 2 0.0 3.4546136139158423 0.49224889672115635 10.26491405434359
295 25 1 0.0 3.2453503797875944 0.4405067945074509 10.66940623629295
296 25 1 0.0 3.216673073038159 0.5197521532579937 11.147597022320848
297 25 1 0.0 3.1934609466450237 1.0416310195752088 9.710650043678958
298 25 1 0.0 2.935286125341165 1.0076097362702066 10.131776234680977
299 25 1 0.0 3.056268351355816 1.124793495720617 10.54700891455953
300 25 1 0.0 2.942878720326364 1.177577159125593 11.022638999512163
301 26 5 8.861242189860825 3.057940305915528 1.3127798118858716 8.590891086420065
302 26 6 -8.861242189860825 2.9165403858476435 1.3085546237145844 9.014706939735213
303 26 3 0.0 3.0126453138389135 1.4103449152844987 9.498320073668602
304 26 3 0.0 3.428996362817351 1.4965453932231574 9.468798896399608
305 26 1 0.0 2.9646176828748168 1.5099354643458793 10.04759836090728
306 26 2 0.0 3.0628520842689633 1.2111990418807947 10.377145617352584
307 26 1 0.0 3.029747578363712 1.4183206820292111 10.784683332697387
308 26 1 0.0 3.075732439076751 1.4176113362597744 11.268060547780664
309 26 1 0.0 3.699711724623051 1.3471626979909566 9.874001792231427
310 26 1 0.0 3.693879945693647 1.5972953143267163 10.301270582830991
311 26 1 0.0 3.746691738316797 1.4435412352704753 10.718831965938927
312 26 1 0.0 3.7869745432861013 1.531426847410753 11.201035985065714
313 27 5 8.861242189860825 3.2167997490052063 2.8895937946770296 8.53927533589374
314 27 6 -8.861242189860825 3.4356622986182566 2.8877136949015894 8.928797243792694
315 27 3 0.0 3.4538105227916396 2.734559904126066 9.40806088969692
316 27 3 0.0 3.059455851528731 2.5771009308379744 9.4446844241226
317 27 1 0.0 3.6238170749445993 2.604680226068 9.92590315243995
318 27 2 0.0 3.544492324625271 2.855431541165391 10.2978254614224
319 27 1 0.0 3.6899076021406025 2.6279419579831553 10.668210609837093
320 27 1 0.0 3.7397656150896963 2.5843766701786826 11.149235439644416
321 27 1 0.0 2.852465171459471 2.644624311676566 9.905538885908
322 27 1 0.0 2.9823743570985646 2.368562448423453 10.295503507334963
323 27 1 0.0 2.987814715069472 2.4787647836036943 10.729799211614301
324 27 1 0.0 3.0574044720211813 2.3494238360051285 11.199155671313324
325 28 5 8.861242189860825 3.9640082445465064 3.2470240752864035 8.40188508899233
326 28 6 -8.861242189860825 3.95377066865734 3.078854189163797 8.81570358612961
327 28 3 0.0 3.7895308250081037 3.120134149426116 9.289834709969615
328 28 3 0.0 3.629933591007458 3.5149685968890574 9.272961646062218
329 28 1 0.0 3.6481688940084074 3.015758838799426 9.821863061306125
330 28 2 0.0 3.8898999517349315 3.142777991868639 10.186454712937271
331 28 1 0.0 3.6543153221786526 3.0436501144760677 10.566922606192321
332 28 1 0.0 3.599699070682949 3.054381478330152 11.049281959320538
333 28 1 0.0 3.6859817379993145 3.7786678006423147 9.705526922872085
334 28 1 0.0 3.4013290292617837 3.697079126603926 10.102358220148286
335 28 1 0.0 3.501379169663585 3.746965816998132 10.536280100740413
336 28 1 0.0 3.361349953705906 3.7361173628161017 11.007598921688219
337 29 5 8.861242189860825 3.6075188542349608 4.5544507494099555 8.416292978420914
338 29 6 -8.861242189860825 3.691917829748454 4.770245061213928 8.798315615259174
339 29 3 0.0 3.7115276181608454 4.757104138114799 9.3012289838362
340 29 3 0.0 3.520016883882704 4.3821652569523595 9.367521459567246
341 29 1 0.0 3.819041696754818 4.870988427372545 9.83919056164132
342 29 2 0.0 3.523837962476916 5.058878463694205 10.130818632091609
343 29 1 0.0 3.7063440423389453 5.061225836390433 10.551256846592006
344 29 1 0.0 3.676884599447237 5.147748023248566 11.028137015034435
345 29 1 0.0 3.2343971500225526 4.3682855332661195 9.789445747139043
346 29 1 0.0 3.4335988655144116 4.328993160811681 10.241035982676605
347 29 1 0.0 3.2801097836618083 4.486034200063487 10.631633121263505
348 29 1 0.0 3.3235617700664233 4.523233634841151 11.120095431159783
349 30 5 8.861242189860825 3.541243904833717 5.127926651684774 8.408056687612689
350 30 6 -8.861242189860825 3.6374175269740334 5.028840257355523 8.832985138054376
351 30 3 0.0 3.497487639954971 5.039510543466729 9.316498173729844
352 30 3 0.0 3.158648145472529 5.296009559545591 9.284152076297465
353 30 1 0.0 3.454036112387999 4.94380492821742 9.866847124480252
354 30 2 0.0 3.6143509160046183 5.2179006154636065 10.193444062508668
355 30 1 0.0 3.4801135474084215 5.06114688927958 10.602700546583453
356 30 1 0.0 3.4503499119418866 5.101504677792726 11.085664331517712
357 30 1 0.0 3.0930010044257195 5.602557379783071 9.68603548018838
358 30 1 0.0 2.908427544121293 5.43825986683428 10.115101815165806
359 30 1 0.0 2.9894344045316164 5.58372739422296 10.531111428001138
360 30 1 0.0 2.896702572236701 5.5614935289269045 11.013577762342424
361 31 5 8.861242189860825 3.093168993881424 6.379557028546517 8.490123317896787
362 31 6 -8.861242189860825 2.9620397110524657 6.345430779647294 8.915884022345148
363 31 3 0.0 3.016410223110857 6.4961208181323595 9.393184183328618
364 31 3 0.0 3.376436186825348 6.720756485746706 9.353556660360931
365 31 1 0.0 2.936477491173724 6.59742777605151 9.938417368555324
366 31 2 0.0 3.1327835239329405 6.366978699105912 10.278787764436622
367 31 1 0.0 3.0293117274140338 6.567736699007864 10.677626183295663
368 31 1 0.0 3.0725210869596142 6.60498204735565 11.159823630325398
369 31 1 0.0 3.682171912192331 6.693718184021497 9.760479232869585
370 31 1 0.0 3.589226609378266 6.945145754195396 10.17677756635426
371 31 1 0.0 3.6923070835448444 6.838538652465906 10.599620625462423
372 31 1 0.0 3.6992285629477863 6.956670714603658 11.07697186959765
373 32 5 8.861242189860825 3.575511370080043 6.998845975725806 8.458310442155117
374 32 6 -8.861242189860825 3.799357116953364 7.1038473217823315 8.83046560611845
375 32 3 0.0 3.823374654836045 7.089461056643459 9.333153657701514
376 32 3 0.0 3.4292282728280474 6.950444475943189 9.416659574438334
377 32 1 0.0 3.9997771204923636 7.107316158412205 9.864656181760832
378 32 2 0.0 3.925708766542941 7.451764994585027 10.153383943082018
379 32 1 0.0 4.0754440546503465 7.335091566699283 10.57057565713953
380 32 1 0.0 4.131397041414264 7.4263151669474405 11.044195927691629
381 32 1 0.0 3.2283035634601203 7.144187899303674 9.843138331954922
382 32 1 0.0 3.3626944818129254 6.986357570234042 10.292791112565617
383 32 1 0.0 3.3739217407712254 7.212604150926858 10.679408939767892
384 32 1 0.0 3.4492938689493893 7.218074603753819 11.165368215530023
385 33 5 8.861242189860825 4.069768471997993 0.46258094803427263 8.687630261772249
386 33 6 -8.861242189860825 4.012500113998612 0.22936468332010337 9.0644089450551
387 33 3 0.0 4.026201183451702 0.22021358397482965 9.567606343728407
388 33 3 0.0 4.218906072047106 0.5938399758560995 9.637737388857241
389 33 1 0.0 3.9554599216752315 0.08171967041718445 10.10588756894436
390 33 2 0.0 4.2707439131684435 7.840464285293459 10.368764748913788
391 33 1 0.0 4.116555149912013 7.8177777352470645 10.79980235433808
392 33 1 0.0 4.1782269660677365 7.710714727411481 11.269379549369031
393 33 1 0.0 4.531777356925501 0.5921360848998658 10.040105428588369
394 33 1 0.0 4.362688526381277 0.60950693879456 10.50514970136358
395 33 1 0.0 4.5429113482445995 0.43706596429825517 10.877400632489215
396 33 1 0.0 4.532237487532451 0.37801369863150086 11.365525821223224
397 34 5 8.861242189860825 4.340299445737086 1.7025839712993023 8.616709151039743
398 34 6 -8.861242189860825 4.468146601580988 1.5118790667916877 9.00000852655567
399 34 3 0.0 4.421508640409785 1.485541799250028 9.500618487374672
400 34 3 0.0 4.183936571060425 1.833351058033746 9.565721864084555
401 34 1 0.0 4.441244082381061 1.3194934783047612 10.035380149306118
402 34 2 0.0 4.733701392931362 1.4764446080589275 10.347357562478463
403 34 1 0.0 4.625676049620271 1.3029763182677785 10.75762765546224
404 34 1 0.0 4.691168674161783 1.27168797420654 11.237732225638833
405 34 1 0.0 4.289016725514053 2.076237497819015 10.00133146229304
406 34 1 0.0 4.134956922972187 1.9075285509493376 10.44060566288733
407 34 1 0.0 4.326623425743126 1.9527786529067757 10.84310198699218
408 34 1 0.0 4.313074051874359 1.881548322455013 11.329527680958885
409 35 5 8.861242189860825 4.352577921420951 2.1220884428280415 8.652734962826115
410 35 6 -8.861242189860825 4.111357884754907 2.178212389195343 9.02461486775044
411 35 3 0.0 4.102345265419957 2.2910140849461493 9.515199859452627
412 35 3 0.0 4.520969358536542 2.2837879733225757 9.594898480913518
413 35 1 0.0 3.940607544009838 2.4371682820024154 10.031350445799411
414 35 2 0.0 3.882421796895426 2.148401276393234 10.378802424149479
415 35 1 0.0 3.79478932673758 2.386099937451246 10.760773847508249
416 35 1 0.0 3.7156058192856674 2.4097519327278007 11.239249759038739
417 35 1 0.0 4.63955176757916 2.108961311597643 10.058757548043484
418 35 1 0.0 4.582270209754975 2.384121537145972 10.466390505776658
419 35 1 0.0 4.491712476816171 2.2525522732871237 10.885049957768539
420 35 1 0.0 4.427402466575712 2.3636562667790613 11.359799814506282
421 36 5 8.861242189860825 4.306049682608694 3.468790326527304 8.649759350690225
422 36 6 -8.861242189860825 4.098649891966449 3.477761617471211 9.045406301786638