Lipid soup setup

4400 atoms
1408 bonds
1024 angles
0 dihedrals
0 impropers

6 atom types
2 bond types
3 angle types
0 dihedral types
0 improper types

0 11.251758087201125 xlo xhi
0 11.251758087201125 ylo yhi
0 11.584856250000001 zlo zhi

Masses

1 1
2 1
3 1
4 1
5 1
6 1

Atoms

1 1 5 8.861242189860825 0.5957691643891093 0.7203920247392731 2.5862087109326373
2 1 6 -8.861242189860825 0.731905992353806 0.5353804821654482 2.969443834998396
3 1 3 0.0 0.6869858024151527 0.5073704975297288 3.470120078944073
4 1 3 0.0 0.4351810839113913 0.8449949709239375 3.535345204426288
5 1 1 0.0 0.7142510672391224 0.34255817473786576 4.004933196977145
6 1 2 0.0 1.0002636410707442 0.5117335514422513 4.3164959378212195
7 1 1 0.0 0.9000454274948764 0.33411369548239056 4.726970989430843
8 1 1 0.0 0.9673410083419433 0.30582610713337116 5.207012404093925
9 1 1 0.0 0.530536314711008 1.0922730705676207 3.970721254455087
10 1 1 0.0 0.38415864506594194 0.9175018250498093 4.410252304996799
11 1 1 0.0 0.574234356540581 0.9709126205850779 4.812502751556172
12 1 1 0.0 0.5642310277112331 0.8994224366318806 5.29897617145716
13 2 5 8.861242189860825 0.678328690021415 2.287324673900016 2.9213726086475216
14 2 6 -8.861242189860825 0.5277840516667387 2.1290375554683014 3.311133005728571
15 2 3 0.0 0.5107718001991856 2.1731470717010772 3.812375479819389
16 2 3 0.0 0.8111211527727493 2.4708852751157546 3.865219088001336
17 2 1 0.0 0.3698782096151037 2.1265943500918825 4.352665594362797
18 2 2 0.0 0.5885996242048336 1.869823563749781 4.658810246506612
19 2 1 0.0 0.41263572964079775 1.9467306596940035 5.07498842705041
20 2 1 0.0 0.41062593995334645 1.8795793991330185 5.555878551297482
21 2 1 0.0 1.0841771224131553 2.414836261844976 4.291939522358573
22 2 1 0.0 0.9054491612661447 2.538048154471466 4.736949747230428
23 2 1 0.0 0.9990871628794789 2.360426127033664 5.137535881479058
24 2 1 0.0 0.9435514347094957 2.3636866249777517 5.6261793643060365
25 3 5 8.861242189860825 0.4578059707386314 3.336906885552173 2.674709167869916
26 3 6 -8.861242189860825 0.596166724004653 3.497697207760136 3.0679450275921085
27 3 3 0.0 0.6798303797231824 3.4157208710641744 3.55759730920498
28 3 3 0.0 0.48867632617131407 3.0368632228131505 3.597311644929484
29 3 1 0.0 0.8584621097262801 3.4540371089765003 4.087270924347903
30 3 2 0.0 0.6081574564824908 3.6027461255601176 4.43759655987344
31 3 1 0.0 0.8431296244658855 3.5460230501116 4.827022861684588
32 3 1 0.0 0.877411109319882 3.566743465361452 5.310927900753165
33 3 1 0.0 0.2593245716420927 2.9678022653076463 4.047222458742299
34 3 1 0.0 0.5137589656768595 2.8654305175901684 4.459462824575509
35 3 1 0.0 0.4158467227332627 2.9688509163253336 4.884320829956988
36 3 1 0.0 0.5226082187440128 2.938516078270779 5.363433636954717
37 4 5 8.861242189860825 0.8672919292872253 5.070454399971971 2.606291644355288
38 4 6 -8.861242189860825 1.0452948914754339 5.059806722677866 3.0159661975703944
39 4 3 0.0 1.0142370596922707 4.89682861804831 3.4913109487260745
40 4 3 0.0 0.6179513422757418 4.7401169294879155 3.4842898996689327
41 4 1 0.0 1.1303498067409443 4.755768769635973 4.020982088933776
42 4 2 0.0 1.0139195961187224 4.999162644913504 4.387994717445361
43 4 1 0.0 1.1204474079974904 4.763617215477381 4.766481768116235
44 4 1 0.0 1.1209303029960895 4.710050502553526 5.249077889864883
45 4 1 0.0 0.3651592299068467 4.798978843392191 3.922950140126757
46 4 1 0.0 0.45418753432874365 4.514529111816945 4.318324982573012
47 4 1 0.0 0.4154954989238345 4.615816041574087 4.753101701344973
48 4 1 0.0 0.43665938417224665 4.4766573839505615 5.224328036802896
49 5 5 8.861242189860825 0.5023844378317199 6.097320279809133 2.9486007272375963
50 5 6 -8.861242189860825 0.4687892040265198 6.271651858953218 3.358614785423699
51 5 3 0.0 0.6379832238935055 6.284722445496578 3.832620721424117
52 5 3 0.0 0.8940075348934737 5.94410922808203 3.823433415554211
53 5 1 0.0 0.7474947854874244 6.433882220054594 4.361478119180156
54 5 2 0.0 0.5465911580325096 6.257017029893156 4.730058204018916
55 5 1 0.0 0.748535173960024 6.422012674821424 5.106989660842613
56 5 1 0.0 0.8039331765207189 6.436511649944032 5.5891612938536825
57 5 1 0.0 0.9077341019619822 5.684613092267887 4.2619134269537735
58 5 1 0.0 1.1616048842600182 5.84568372084487 4.655315045310977
59 5 1 0.0 1.0776791509601558 5.7814018667302145 5.090758756312961
60 5 1 0.0 1.2100393004748273 5.838520111641227 5.5609561597279855
61 6 5 8.861242189860825 1.021734512159499 7.443338792971811 2.8620431506862514
62 6 6 -8.861242189860825 1.0039395286681831 7.683324849525573 3.2385025752645866
63 6 3 0.0 0.9402430460592941 7.6909080577867535 3.7378665076933237
64 6 3 0.0 0.8042954419527703 7.291129350012512 3.7957063904534025
65 6 1 0.0 0.935271891310584 7.839847773046805 4.277981140404701
66 6 2 0.0 0.5683508307992574 7.9840757636722195 4.506152269228069
67 6 1 0.0 0.6743705790781778 8.032074603520227 4.94947855528111
68 6 1 0.0 0.5510597411723224 8.128464673048466 5.40912193269362
69 6 1 0.0 0.4577247097504806 7.242795588563663 4.166305848936403
70 6 1 0.0 0.5815295409115924 7.253728317194402 4.645588431602124
71 6 1 0.0 0.34068986388063394 7.395300938978812 4.995931625710742
72 6 1 0.0 0.29436507020332614 7.456048965388511 5.481761834773099
73 7 5 8.861242189860825 0.36104206262227534 9.304415649330853 2.6163968631117136
74 7 6 -8.861242189860825 0.21378376593254325 9.432362161923184 3.0183624724653404
75 7 3 0.0 0.3017216199634999 9.474046693985306 3.5123345542373383
76 7 3 0.0 0.6581773333318615 9.241853919553481 3.538335673412291
77 7 1 0.0 0.2798283586021998 9.619947740190518 4.052857576368142
78 7 2 0.0 0.10391777050920475 9.363854100456463 4.385973704226989
79 7 1 0.0 0.18314301683804352 9.565017970117678 4.790125568560834
80 7 1 0.0 0.16378937807204352 9.568898887201643 5.2752843238121265
81 7 1 0.0 0.7005456756739243 8.97697773921249 3.9717372380126865
82 7 1 0.0 0.8271017422439411 9.19112369581426 4.399854074993325
83 7 1 0.0 0.7118923691662409 9.076489779016773 4.8174337397331515
84 7 1 0.0 0.7509561359554633 9.147231456213479 5.302549126513582
85 8 5 8.861242189860825 1.1840126940422184 10.153534659057364 2.831435336426418
86 8 6 -8.861242189860825 1.2831374128084363 10.092845327847467 3.2628548101852495
87 8 3 0.0 1.1496071497437486 10.152844085994778 3.7445693541027287
88 8 3 0.0 0.8166159745161043 10.413505635162945 3.69144071497646
89 8 1 0.0 1.1108191400502574 10.110910981186148 4.301945952692366
90 8 2 0.0 1.281744169930243 10.410668255460132 4.599309455219976
91 8 1 0.0 1.1489658836792953 10.296862317361644 5.022984338486906
92 8 1 0.0 1.1262644589035233 10.383599357253825 5.500194956423865
93 8 1 0.0 0.7633862247422818 10.758350946354158 4.062977642658448
94 8 1 0.0 0.5803595322194158 10.640175700217027 4.507606471959289
95 8 1 0.0 0.6700572497381099 10.82239274965067 4.907028776415551
96 8 1 0.0 0.5829079623096673 10.848367036027883 5.390348173302746
97 9 5 8.861242189860825 2.163355025289407 1.1813331151298834 2.9791995046375703
98 9 6 -8.861242189860825 1.9752563230117617 1.1059557975435206 3.3774064926808283
99 9 3 0.0 2.031149841946952 1.0696314724117055 3.876441102602554
100 9 3 0.0 2.45675934986433 1.0749541054368845 3.8983142513848463
101 9 1 0.0 1.9381831915038157 1.0446998902201514 4.428407755349834
102 9 2 0.0 1.942887724722494 0.6633318917362853 4.677468308337929
103 9 1 0.0 1.9000479961934205 0.7710201800050553 5.12092096847964
104 9 1 0.0 1.888783310033852 0.6473435967217289 5.590331079407143
105 9 1 0.0 2.6477705717575755 0.7831746097145585 4.270027612094134
106 9 1 0.0 2.6369335279161645 0.9216438984190901 4.745283090113388
107 9 1 0.0 2.6127912447080104 0.6665505738670442 5.112885398131166
108 9 1 0.0 2.611827010351073 0.6285436257224952 5.603213699786633
109 10 5 8.861242189860825 2.240511846965207 2.4694425697016587 3.0002977557504664
110 10 6 -8.861242189860825 2.157074750689783 2.6409187011888258 3.404359452062867
111 10 3 0.0 2.108814144857146 2.5640468506252194 3.899577299550781
112 10 3 0.0 2.1109722536927276 2.1378643191002706 3.9033203836916286
113 10 1 0.0 2.071641252123692 2.63355485583056 4.454300997339534
114 10 2 0.0 1.6845658696768666 2.6209830881614753 4.694112258368807
115 10 1 0.0 1.7821837901929125 2.6440830822030055 5.1413475470333605
116 10 1 0.0 1.6477036118023187 2.6362016909368524 5.6078468588652495
117 10 1 0.0 1.8094467920898345 1.9332796809824893 4.259717501236507
118 10 1 0.0 1.9368980550584944 1.9228275906262746 4.738054081685616
119 10 1 0.0 1.67348564901032 1.9331052415272496 5.100400856421345
120 10 1 0.0 1.6240998875564092 1.9134215209977499 5.589318946668809
121 11 5 8.861242189860825 2.1008225780921705 3.177723243019701 2.685545681731397
122 11 6 -8.861242189860825 2.163549336702419 3.0123368587875516 3.095843579357501
123 11 3 0.0 2.1464697021326287 3.086134594177993 3.59357971858106
124 11 3 0.0 2.083320794345741 3.5076088494923336 3.598257949249872
125 11 1 0.0 2.1328579919735544 3.0123836730141695 4.148833796102568
126 11 2 0.0 2.4859397261699097 3.0750275213471285 4.429732139276861
127 11 1 0.0 2.344747764914139 3.0301721509454174 4.86347756850965
128 11 1 0.0 2.4254219612502164 3.0483724341931406 5.34194289262741
129 11 1 0.0 2.312293451448325 3.746100942997693 3.986181172552799
130 11 1 0.0 2.1336082534606398 3.7296760640601696 4.44765790890346
131 11 1 0.0 2.3549995520401112 3.750005234211375 4.8367074284813345
132 11 1 0.0 2.3478436070633752 3.7674710468919383 5.328145155053471
133 12 5 8.861242189860825 1.686067744374019 4.903451823743897 2.817346113371186
134 12 6 -8.861242189860825 1.6068223780782316 4.989944873865221 3.2484734626925786
135 12 3 0.0 1.7828205270938784 5.009646117594224 3.7197648762506508
136 12 3 0.0 2.157341274957874 4.81480398513384 3.6612758078076557
137 12 1 0.0 1.850812838953852 5.118403404430322 4.265182574641722
138 12 2 0.0 1.7654134088301714 4.8250207194070205 4.603011494981885
139 12 1 0.0 1.901327613344875 5.007716273510999 5.00079527428823
140 12 1 0.0 1.974205143388023 4.979234333158303 5.480009513784967
141 12 1 0.0 2.305172397514528 4.529247546897634 4.056743712103833
142 12 1 0.0 2.490726942416564 4.728277171776874 4.470405015717665
143 12 1 0.0 2.467842884249792 4.576367772657078 4.891340598996625
144 12 1 0.0 2.591737730874274 4.620356252495197 5.3652418354171685
145 13 5 8.861242189860825 1.9195002013124578 6.351112638522349 2.7784995816683304
146 13 6 -8.861242189860825 2.1174839782399095 6.198815253347655 3.1489582131969063
147 13 3 0.0 2.09450923633306 6.125527377304272 3.646532461339164
148 13 3 0.0 1.7451516937594322 6.353692690511515 3.733366300282298
149 13 1 0.0 2.1861898434361584 5.945881876490423 4.16926922869801
150 13 2 0.0 2.4047298864477242 6.18135629243031 4.4922040378985715
151 13 1 0.0 2.3782322955168085 5.954632748823197 4.889666720431855
152 13 1 0.0 2.4605966587119403 5.9202063250911054 5.366950258459682
153 13 1 0.0 1.7603595596375397 6.5904209721003 4.184498016141839
154 13 1 0.0 1.690017984342016 6.348972569878456 4.611011423516485
155 13 1 0.0 1.858963860480687 6.437608278820041 5.016459216660899
156 13 1 0.0 1.8832088533139466 6.336144255267183 5.497067720025616
157 14 5 8.861242189860825 1.6848088579923373 7.881296761951157 2.933598415142825
158 14 6 -8.861242189860825 1.574131902395654 7.875886757562017 3.3664413548841274
159 14 3 0.0 1.723249893854488 7.909662544060246 3.8461309470420963
160 14 3 0.0 2.1451695024426165 7.893504683722345 3.7880535355313634
161 14 1 0.0 1.7367592185593144 7.971027198374099 4.402892516277247
162 14 2 0.0 1.7778244182720608 7.630494916210105 4.702636166972081
163 14 1 0.0 1.8236558100349676 7.804087055898601 5.124355889210568
164 14 1 0.0 1.8986721549756687 7.751151520060243 5.6011567068326915
165 14 1 0.0 2.3950764865827416 7.64858923358956 4.158666952864252
166 14 1 0.0 2.47928155805098 7.855374492732382 4.60060395896482
167 14 1 0.0 2.5183768663412915 7.658529669659562 5.001241679890636
168 14 1 0.0 2.6099966246619895 7.692659747541177 5.483225350701737
169 15 5 8.861242189860825 2.090993088471242 9.598966587212946 2.805489243545126
170 15 6 -8.861242189860825 1.891984157641945 9.514807735053468 3.1965703095466815
171 15 3 0.0 1.920360339361686 9.514721432939794 3.6992370667705137
172 15 3 0.0 2.33718117212797 9.591357604978738 3.7443758394264535
173 15 1 0.0 1.7968608510935655 9.504097577577078 4.245649527943364
174 15 2 0.0 1.846844334095239 9.142486619482494 4.518108714553157
175 15 1 0.0 1.7583629478730463 9.264992498276289 4.9508275903959165
176 15 1 0.0 1.7366443348354497 9.166222658097519 5.4257396487463705
177 15 1 0.0 2.548162236575744 9.355227925749878 4.14377682662438
178 15 1 0.0 2.484150786073549 9.515016530455824 4.608027934142283
179 15 1 0.0 2.477609583112548 9.279295044988569 4.989052217991029
180 15 1 0.0 2.45083603804024 9.267707205115173 5.479986226296444
181 16 5 8.861242189860825 1.914203740391828 10.76296255506351 2.882794615654984
182 16 6 -8.861242189860825 1.8831609636083968 10.509817820461304 3.249653929949015
183 16 3 0.0 1.8280670079106012 10.486764374456824 3.7495662008804826
184 16 3 0.0 1.8773402859906663 10.899655679130294 3.84307092205503
185 16 1 0.0 1.7309672914817222 10.312843708550266 4.273259636652097
186 16 2 0.0 2.0528803829309625 10.217814339989774 4.581214540200845
187 16 1 0.0 1.8552844184205386 10.130565988568316 4.985474149289974
188 16 1 0.0 1.8815398875385392 10.031604787467874 5.460117145304909
189 16 1 0.0 2.1138951618105555 10.983799160693952 4.286639461042076
190 16 1 0.0 1.8845857711154472 10.928371286209986 4.721959927928364
191 16 1 0.0 2.0566423859335106 10.809397830316957 5.118228459381133
192 16 1 0.0 1.9970457901858807 10.731851294409225 5.60020572212648
193 17 5 8.861242189860825 3.651628823794792 0.7060228983148547 2.9159270901187817
194 17 6 -8.861242189860825 3.6266793942160533 0.5372746152505095 3.328883758618111
195 17 3 0.0 3.550245833688648 0.6185040986102455 3.819840748397443
196 17 3 0.0 3.5566972581160328 1.0446589693185928 3.820630421782687
197 17 1 0.0 3.444828260942416 0.5542588461749758 4.36636728071408
198 17 2 0.0 3.759133169863653 0.5616086143653299 4.695993200645587
199 17 1 0.0 3.5514402242210377 0.5453173882035552 5.104258442660997
200 17 1 0.0 3.5641241136108865 0.5555244453741209 5.589545551063585
201 17 1 0.0 3.7631204378653647 1.2469573668721807 4.240459211591514
202 17 1 0.0 3.5194717853094444 1.265147492098229 4.671113839190955
203 17 1 0.0 3.6827418462944 1.2534732135737587 5.088239131323209
204 17 1 0.0 3.6077123787891807 1.2774387687156301 5.573691016098742
205 18 5 8.861242189860825 3.416740209787287 2.0034292631948167 2.6546908118005983
206 18 6 -8.861242189860825 3.3224806058910623 2.1580538256871376 3.063148935576976
207 18 3 0.0 3.3989060551195927 2.12746217870993 3.559840374802989
208 18 3 0.0 3.6185083347628693 1.7624271333621406 3.573049187507376
209 18 1 0.0 3.419494477614601 2.2354115425302465 4.109253351843196
210 18 2 0.0 3.1363040548228054 2.0614702946533563 4.420769753788849
211 18 1 0.0 3.277608177922998 2.18343188592238 4.839387463169945
212 18 1 0.0 3.2414200125294124 2.1659810747717394 5.3232826259102985
213 18 1 0.0 3.5239108862422484 1.4797518455861711 3.986494937221991
214 18 1 0.0 3.7124508372748313 1.591381470006929 4.430511230433377
215 18 1 0.0 3.5415329640278848 1.5131180707668095 4.837265249311665
216 18 1 0.0 3.5868699225662866 1.53039905418531 5.326666137196096
217 19 5 8.861242189860825 3.4710645372636497 3.153383980985093 2.9216965895062934
218 19 6 -8.861242189860825 3.426412068882863 3.0338463470928465 3.349888810690284
219 19 3 0.0 3.4976637222026765 3.147849911117038 3.8350748299075987
220 19 3 0.0 3.7475391189750633 3.490047376622316 3.7891031105656827
221 19 1 0.0 3.471946198222787 3.161066490184648 4.394624200944973
222 19 2 0.0 3.785221746219956 2.9858236086974204 4.6750581601408205
223 19 1 0.0 3.6810411733258164 3.0967191152047127 5.1074131837330095
224 19 1 0.0 3.7818405966551003 3.100992684646628 5.582376188090813
225 19 1 0.0 4.102147602231408 3.5366866103807104 4.1522408103711195
226 19 1 0.0 3.9929017339088944 3.6967247084345503 4.607885520915023
227 19 1 0.0 4.189711080064764 3.5948348474097425 4.9973357082504
228 19 1 0.0 4.2282596660465055 3.6614924125836215 5.4830702826667075
229 20 5 8.861242189860825 3.178894769269038 4.751248804480021 2.794378680018302
230 20 6 -8.861242189860825 3.33461036888026 4.548312850449685 3.1607136602359276
231 20 3 0.0 3.3191834298203973 4.4997495064625035 3.661595577584713
232 20 3 0.0 3.0772623544274613 4.837753753709691 3.7558162781405517
233 20 1 0.0 3.375606933760853 4.312077333339331 4.186502341942474
234 20 2 0.0 3.6824177487864316 4.463942386402012 4.487000214475277
235 20 1 0.0 3.60397616541826 4.270500792160234 4.8950560184694805
236 20 1 0.0 3.699314850616666 4.220984481285934 5.36858248310469
237 20 1 0.0 3.202440888319601 5.065033603992696 4.19452527947386
238 20 1 0.0 3.0797078381600422 4.873844753475447 4.634459793529409
239 20 1 0.0 3.2942851324689153 4.907544549199588 5.026388128132497
240 20 1 0.0 3.3121513121310677 4.815663462856132 5.509198615649202
241 21 5 8.861242189860825 3.3735300997833098 6.8168834608117095 2.7261049708092213
242 21 6 -8.861242189860825 3.4746598333849947 6.948448598666291 3.1409483853821065
243 21 3 0.0 3.519489277432197 6.829354814274418 3.6280685711890697
244 21 3 0.0 3.3354170609272726 6.444998970751186 3.621886099987784
245 21 1 0.0 3.652544173844062 6.828757223894279 4.172336524551008
246 21 2 0.0 3.370340529124792 6.944363023015008 4.510702072548951
247 21 1 0.0 3.573576339372827 6.861269756587489 4.913036493229923
248 21 1 0.0 3.5670693663133584 6.844054235744323 5.398247713000842
249 21 1 0.0 3.071378076434194 6.336034007303268 4.044025217994605
250 21 1 0.0 3.293274004564132 6.205996518080887 4.467122610207038
251 21 1 0.0 3.157861153996559 6.273408995498048 4.888911453965572
252 21 1 0.0 3.225259393149258 6.2070583221995514 5.371531767225845
253 22 5 8.861242189860825 3.7345525594318483 7.883013068371173 2.909727256207643
254 22 6 -8.861242189860825 3.5836297939839925 8.033721508252823 3.3023351422078404
255 22 3 0.0 3.6263827538886435 8.036695999696683 3.8039748742616433
256 22 3 0.0 3.9056807501451725 7.718191690378406 3.8508561340828193
257 22 1 0.0 3.5857463208956717 8.167760861248214 4.347208019430743
258 22 2 0.0 3.315155033985128 7.957649594705047 4.647422031553519
259 22 1 0.0 3.4003922982528483 8.119259697784901 5.067777898552109
260 22 1 0.0 3.3312880588373748 8.114284064669288 5.54836971061073
261 22 1 0.0 3.831713915738575 7.439277880612747 4.271007746804694
262 22 1 0.0 3.9632066998551267 7.600260713739312 4.7203997026569215
263 22 1 0.0 3.7785594614900964 7.508168133652903 5.118157499546828
264 22 1 0.0 3.782859717070472 7.552283974579187 5.607956031231849
265 23 5 8.861242189860825 3.3340742928558735 9.167041469991803 2.8859084253458556
266 23 6 -8.861242189860825 3.1573966550204546 9.219107932578611 3.2929781526581756
267 23 3 0.0 3.2286162402953846 9.331137897769532 3.7786283781575127
268 23 3 0.0 3.654727701423603 9.33001873031526 3.787459485054731
269 23 1 0.0 3.153039765039477 9.474219309237206 4.315049363681512
270 23 2 0.0 3.1577192071688707 9.184178387628803 4.666260423543012
271 23 1 0.0 3.1315314094379847 9.420064132716583 5.058375694951627
272 23 1 0.0 3.132835380418666 9.441929150057343 5.5434415289620755
273 23 1 0.0 3.85143775664951 9.1563783847839 4.224432674300582
274 23 1 0.0 3.858908891513497 9.430138895051371 4.63693518336302
275 23 1 0.0 3.8412700987162673 9.296707455758588 5.06433644087922
276 23 1 0.0 3.8553572599383004 9.4062400947935 5.543576938055997
277 24 5 8.861242189860825 3.861064013688952 10.67270606626289 2.941196790960869
278 24 6 -8.861242189860825 4.012984980608076 10.633686771229543 3.3595616814057925
279 24 3 0.0 3.9132507189907786 10.53406393881049 3.8428912297218734
280 24 3 0.0 3.4874066482876067 10.530616683258696 3.825710945505415
281 24 1 0.0 3.9572208669686857 10.406434447239903 4.3866824641110105
282 24 2 0.0 3.928267920889428 10.705816067206772 4.728774870478757
283 24 1 0.0 3.932668335563173 10.480954329301792 5.128149515060149
284 24 1 0.0 3.901885492307476 10.472230193411928 5.612654364016227
285 24 1 0.0 3.2626599819200925 10.71380665868049 4.244902730258612
286 24 1 0.0 3.2325818334211305 10.451259434778278 4.663618881159177
287 24 1 0.0 3.222744118751829 10.596415637006498 5.087434651576326
288 24 1 0.0 3.1804008808960225 10.49975962443174 5.567780325753295
289 25 5 8.861242189860825 4.867772928733852 0.5420413147579266 2.690398689981177
290 25 6 -8.861242189860825 4.888488094926823 0.43623307609154655 3.123996620847376
291 25 3 0.0 4.748521241691051 0.5399523780534352 3.5963637136372784
292 25 3 0.0 4.5688508508281185 0.9211203522367 3.5324908368128196
293 25 1 0.0 4.6417551641512365 0.5091713849025488 4.145531359058633
294 25 2 0.0 4.896422707934244 0.6982216244380709 4.472485929343593
295 25 1 0.0 4.6871594738059965 0.6464795222243654 4.876978111292955
296 25 1 0.0 4.658482167056561 0.7257248809749083 5.355168897320852
297 25 1 0.0 4.635270040663426 1.2476037472921233 3.918221918678962
298 25 1 0.0 4.377095219359568 1.2135824639871213 4.339348109680982
299 25 1 0.0 4.498077445374218 1.3307662234375317 4.754580789559534
300 25 1 0.0 4.384687814344766 1.3835498868425076 5.230210874512165
301 26 5 8.861242189860825 4.499749399933929 1.9306979950366148 2.798462961420068
302 26 6 -8.861242189860825 4.358349479866045 1.9264728068653276 3.2222788147352146
303 26 3 0.0 4.454454407857314 2.0282630984352417 3.705891948668604
304 26 3 0.0 4.870805456835752 2.1144635763739004 3.6763707713996117
305 26 1 0.0 4.406426776893218 2.1278536474966225 4.255170235907283
306 26 2 0.0 4.504661178287365 1.829117225031538 4.5847174923525875
307 26 1 0.0 4.471556672382113 2.0362388651799543 4.99225520769739
308 26 1 0.0 4.517541533095152 2.0355295194105176 5.4756324227806665
309 26 1 0.0 5.141520818641452 1.9650808811416998 4.08157366723143
310 26 1 0.0 5.135689039712048 2.2152134974774595 4.508842457830994
311 26 1 0.0 5.188500832335198 2.0614594184212183 4.926403840938931
312 26 1 0.0 5.2287836373045025 2.1493450305614963 5.408607860065716
313 27 5 8.861242189860825 4.658608843023608 3.919457433261602 2.7468472108937405
314 27 6 -8.861242189860825 4.877471392636659 3.917577333486162 3.1363691187926968
315 27 3 0.0 4.895619616810041 3.7644235427106385 3.6156327646969206
316 27 3 0.0 4.501264945547133 3.606964569422547 3.6522562991226017
317 27 1 0.0 5.065626168963001 3.6345438646525725 4.133475027439952
318 27 2 0.0 4.986301418643673 3.8852951797499635 4.505397336422401
319 27 1 0.0 5.131716696159004 3.657805596567728 4.875782484837095
320 27 1 0.0 5.181574709108098 3.614240308763255 5.356807314644417
321 27 1 0.0 4.294274265477873 3.6744879502611387 4.113110760908002
322 27 1 0.0 4.424183451116966 3.3984260870080254 4.503075382334965
323 27 1 0.0 4.429623809087874 3.508628422188267 4.937371086614304
324 27 1 0.0 4.499213566039583 3.379287474589701 5.406727546313325
325 28 5 8.861242189860825 5.405817338564908 4.688833169304805 2.6094569639923337
326 28 6 -8.861242189860825 5.395579762675742 4.5206632831821985 3.0232754611296127
327 28 3 0.0 5.231339919026506 4.561943243444518 3.4974065849696165
328 28 3 0.0 5.0717426850258605 4.956777690907459 3.4805335210622212
329 28 1 0.0 5.089977988026809 4.4575679328178275 4.029434936306128
330 28 2 0.0 5.331709045753334 4.584587085887041 4.394026587937274
331 28 1 0.0 5.096124416197055 4.485459208494469 4.774494481192325
332 28 1 0.0 5.0415081647013515 4.496190572348554 5.256853834320541
333 28 1 0.0 5.127790832017716 5.220476894660716 3.9130987978720873
334 28 1 0.0 4.843138123280186 5.138888220622328 4.309930095148288
335 28 1 0.0 4.943188263681987 5.188774911016534 4.743851975740416
336 28 1 0.0 4.803159047724308 5.177926456834504 5.215170796688223
337 29 5 8.861242189860825 5.049327948253362 6.408205298862186 2.623864853420918
338 29 6 -8.861242189860825 5.133726923766856 6.623999610666159 3.005887490259176
339 29 3 0.0 5.153336712179247 6.610858687567029 3.508800858836204
340 29 3 0.0 4.961825977901105 6.23591980640459 3.575093334567249
341 29 1 0.0 5.26085079077322 6.724742976824776 4.046762436641324
342 29 2 0.0 4.9656470564953175 6.9126330131464355 4.338390507091612
343 29 1 0.0 5.148153136357347 6.9149803858426635 4.7588287215920095
344 29 1 0.0 5.118693693465638 7.001502572700796 5.235708890034437
345 29 1 0.0 4.676206244040954 6.22204008271835 3.9970176221390465
346 29 1 0.0 4.875407959532813 6.182747710263912 4.448607857676608
347 29 1 0.0 4.72191887768021 6.3397887495157175 4.839204996263508
348 29 1 0.0 4.765370864084825 6.376988184293381 5.327667306159786
349 30 5 8.861242189860825 4.983052998852119 7.393626656570834 2.6156285626126916
350 30 6 -8.861242189860825 5.0792266209924355 7.294540262241584 3.0405570130543786
351 30 3 0.0 4.939296733973373 7.30521054835279 3.524070048729847
352 30 3 0.0 4.6004572394909315 7.561709564431651 3.491723951297467
353 30 1 0.0 4.895845206406401 7.209504933103481 4.074418999480255
354 30 2 0.0 5.056160010023021 7.483600620349667 4.401015937508672
355 30 1 0.0 4.921922641426823 7.32684689416564 4.810272421583456
356 30 1 0.0 4.892159005960289 7.3672046826787865 5.293236206517715
357 30 1 0.0 4.5348100984441215 7.868257384669131 3.893607355188383
358 30 1 0.0 4.3502366381396955 7.703959871720341 4.322673690165809
359 30 1 0.0 4.431243498550018 7.84942739910902 4.738683303001141
360 30 1 0.0 4.338511666255103 7.827193533812965 5.221149637342426
361 31 5 8.861242189860825 4.534978087899826 9.057202488866405 2.69769519289679
362 31 6 -8.861242189860825 4.403848805070867 9.023076239967182 3.123455897345151
363 31 3 0.0 4.458219317129259 9.173766278452248 3.6007560583286216
364 31 3 0.0 4.81824528084375 9.398401946066594 3.561128535360935
365 31 1 0.0 4.378286585192125 9.275073236371398 4.145989243555329
366 31 2 0.0 4.5745926179513425 9.0446241594258 4.486359639436626
367 31 1 0.0 4.471120821432436 9.245382159327752 4.885198058295667
368 31 1 0.0 4.514330180978016 9.282627507675537 5.367395505325403
369 31 1 0.0 5.123981006210732 9.371363644341384 3.9680511078695884
370 31 1 0.0 5.031035703396667 9.622791214515285 4.3843494413542645
371 31 1 0.0 5.134116177563246 9.516184112785794 4.807192500462426
372 31 1 0.0 5.141037656966188 9.634316174923546 5.284543744597653
373 32 5 8.861242189860825 5.017320464098445 10.088436891479525 2.665882317155119
374 32 6 -8.861242189860825 5.241166210971766 10.19343823753605 3.0380374811184527
375 32 3 0.0 5.265183748854447 10.179051972397177 3.5407255327015172
376 32 3 0.0 4.8710373668464495 10.040035391696907 3.6242314494383363
377 32 1 0.0 5.441586214510766 10.196907074165924 4.072228056760835
378 32 2 0.0 5.367517860561343 10.541355910338746 4.3609558180820205
379 32 1 0.0 5.517253148668749 10.424682482453003 4.778147532139533
380 32 1 0.0 5.573206135432666 10.515906082701159 5.2517678026916315
381 32 1 0.0 4.670112657478523 10.233778815057391 4.050710206954925
382 32 1 0.0 4.804503575831328 10.07594848598776 4.5003629875656195
383 32 1 0.0 4.815730834789628 10.302195066680577 4.886980814767894
384 32 1 0.0 4.891102962967791 10.307665519507538 5.372940090530026
385 33 5 8.861242189860825 5.923523021450225 0.6685536757511871 2.8952021367722516
386 33 6 -8.861242189860825 5.866254663450843 0.43533741103701784 3.271980820055102
387 33 3 0.0 5.879955732903934 0.42618631169174415 3.77517821872841
388 33 3 0.0 6.072660621499337 0.799812703573014 3.845309263857245
389 33 1 0.0 5.809214471127463 0.28769239813409897 4.313459443944363
390 33 2 0.0 6.124498462620675 0.09024256927988061 4.576336623913792
391 33 1 0.0 5.970309699364245 0.06755601923348575 5.007374229338084
392 33 1 0.0 6.031981515519968 11.212251098599026 5.476951424369034
393 33 1 0.0 6.385531906377732 0.7981088126167803 4.247677303588373
394 33 1 0.0 6.216443075833508 0.8154796665114745 4.712721576363583
395 33 1 0.0 6.396665897696831 0.6430386920151696 5.084972507489217
396 33 1 0.0 6.385992036984683 0.5839864263484154 5.573097696223228
397 34 5 8.861242189860825 6.194053995189317 2.3205021544500455 2.824281026039745
398 34 6 -8.861242189860825 6.321901151033218 2.129797249942431 3.207580401555673
399 34 3 0.0 6.275263189862016 2.103459982400771 3.708190362374674
400 34 3 0.0 6.0376911205126556 2.451269241184489 3.773293739084558
401 34 1 0.0 6.294998631833292 1.9374116614555044 4.2429520243061205
402 34 2 0.0 6.587455942383592 2.0943627912096705 4.554929437478465
403 34 1 0.0 6.479430599072502 1.9208945014185217 4.965199530462242
404 34 1 0.0 6.544923223614013 1.889606157357283 5.445304100638836
405 34 1 0.0 6.142771274966284 2.694155680969758 4.208903337293043
406 34 1 0.0 5.988711472424418 2.525446734100081 4.648177537887334
407 34 1 0.0 6.1803779751953565 2.570696836057519 5.050673861992183
408 34 1 0.0 6.16682860132659 2.4994665056057563 5.5370995559588865
409 35 5 8.861242189860825 6.206332470873183 3.151952081412614 2.860306837826117
410 35 6 -8.861242189860825 5.965112434207138 3.2080760277799154 3.2321867427504434
411 35 3 0.0 5.956099814872188 3.320877723530722 3.7227717344526305
412 35 3 0.0 6.374723907988773 3.313651611907148 3.80247035591352
413 35 1 0.0 5.79436209346207 3.467031920586988 4.238922320799413
414 35 2 0.0 5.736176346347658 3.1782649149778064 4.586374299149481
415 35 1 0.0 5.6485438761898115 3.4159635760358187 4.968345722508252
416 35 1 0.0 5.569360368737899 3.4396155713123733 5.4468216340387405
417 35 1 0.0 6.493306317031392 3.1388249501822156 4.266329423043488
418 35 1 0.0 6.436024759207206 3.4139851757305446 4.673962380776661
419 35 1 0.0 6.345467026268403 3.2824159118716962 5.0926218327685415
420 35 1 0.0 6.281157016027944 3.393519905363634 5.567371689506285
421 36 5 8.861242189860825 6.1598042320609245 4.910599420545705 2.8573312256902286
422 36 6 -8.861242189860825 5.95240444141868 4.919570711489612 3.25297817678664
423 36 3 0.0 5.9895099849152365 4.91808431568057 3.755073838214115
424 36 3 0.0 6.403619829825267 4.824648041594241 3.7929277326386015