Lipid soup setup

3584 atoms
1408 bonds
1024 angles
0 dihedrals
0 impropers

6 atom types
2 bond types
3 angle types
0 dihedral types
0 improper types

0 10.373608390765556 xlo xhi
0 10.373608390765556 ylo yhi
0 11.101637647058823 zlo zhi

Masses

1 1
2 1
3 1
4 1
5 1
6 1

Atoms

1 1 5 8.861242189860825 0.5408848083618862 0.66550766871205 2.344599409462048
2 1 6 -8.861242189860825 0.677021636326583 0.4804961261382251 2.7278345335278065
3 1 3 0.0 0.6321014463879296 0.45248614150250577 3.228510777473484
4 1 3 0.0 0.38029672788416824 0.7901106148967143 3.2937359029556985
5 1 1 0.0 0.6593667112118993 0.2876738187106427 3.7633238955065558
6 1 2 0.0 0.9453792850435211 0.4568491954150282 4.07488663635063
7 1 1 0.0 0.8451610714676533 0.2792293394551675 4.485361687960253
8 1 1 0.0 0.9124566523147202 0.2509417511061481 4.965403102623336
9 1 1 0.0 0.475651958683785 1.0373887145403975 3.7291119529844976
10 1 1 0.0 0.32927428903871886 0.8626174690225861 4.16864300352621
11 1 1 0.0 0.5193500005133579 0.9160282645578548 4.570893450085583
12 1 1 0.0 0.50934667168401 0.8445380806046574 5.057366869986571
13 2 5 8.861242189860825 0.6234443339941919 2.122671605818347 2.6797633071769322
14 2 6 -8.861242189860825 0.4728996956395155 1.9643844873866323 3.0695237042579815
15 2 3 0.0 0.45588744417196236 2.008494003619408 3.5707661783487996
16 2 3 0.0 0.7562367967455261 2.3062322070340855 3.623609786530747
17 2 1 0.0 0.3149938535878805 1.9619412820102131 4.111056292892208
18 2 2 0.0 0.5337152681776104 1.705170495668112 4.417200945036023
19 2 1 0.0 0.35775137361357456 1.7820775916123344 4.833379125579821
20 2 1 0.0 0.35574158392612326 1.7149263310513494 5.314269249826893
21 2 1 0.0 1.0292927663859321 2.250183193763307 4.050330220887983
22 2 1 0.0 0.8505648052389215 2.373395086389797 4.4953404457598385
23 2 1 0.0 0.9442028068522557 2.195773058951995 4.895926580008469
24 2 1 0.0 0.8886670786822725 2.1990335568960826 5.384570062835447
25 3 5 8.861242189860825 0.4029216147114083 3.062485105416058 2.433099866399326
26 3 6 -8.861242189860825 0.5412823679774299 3.2232754276240208 2.8263357261215187
27 3 3 0.0 0.6249460236959593 3.1412990909280594 3.3159880077343904
28 3 3 0.0 0.433791970144091 2.7624414426770354 3.355702343458894
29 3 1 0.0 0.8035777536990572 3.1796153288403852 3.8456616228773135
30 3 2 0.0 0.5532731004552677 3.3283243454240026 4.19598725840285
31 3 1 0.0 0.7882452684386624 3.271601269975485 4.585413560213999
32 3 1 0.0 0.822526753292659 3.2923216852253367 5.0693185992825756
33 3 1 0.0 0.20444021561486964 2.6933804851715313 3.8056131572717096
34 3 1 0.0 0.45887460964963644 2.5910087374540534 4.217853523104918
35 3 1 0.0 0.3609623667060396 2.6944291361892185 4.642711528486399
36 3 1 0.0 0.4677238627167897 2.664094298134664 5.121824335484128
37 4 5 8.861242189860825 0.8124075732600022 4.686263907781409 2.3646823428846986
38 4 6 -8.861242189860825 0.9904105354482108 4.675616230487305 2.774356896099805
39 4 3 0.0 0.9593527036650475 4.512638125857748 3.249701647255485
40 4 3 0.0 0.5630669862485187 4.355926437297354 3.2426805981983433
41 4 1 0.0 1.0754654507137213 4.371578277445412 3.7793727874631866
42 4 2 0.0 0.9590352400914992 4.614972152722943 4.1463854159747715
43 4 1 0.0 1.0655630519702672 4.379426723286819 4.524872466645646
44 4 1 0.0 1.0660459469688663 4.325860010362964 5.0074685883942935
45 4 1 0.0 0.3102748738796236 4.414788351201629 3.6813408386561677
46 4 1 0.0 0.39930317830152057 4.130338619626383 4.0767156811024226
47 4 1 0.0 0.36061114289661145 4.2316255493835255 4.511492399874384
48 4 1 0.0 0.38177502814502356 4.09246689176 4.982718735332306
49 5 5 8.861242189860825 0.4475000818044968 5.603361075564125 2.706991425767007
50 5 6 -8.861242189860825 0.4139048479992966 5.77769265470821 3.11700548395311
51 5 3 0.0 0.5830988678662823 5.79076324125157 3.5910114199535275
52 5 3 0.0 0.8391231788662505 5.450150023837022 3.581824114083622
53 5 1 0.0 0.6926104294602012 5.939923015809586 4.119868817709567
54 5 2 0.0 0.4917068020052864 5.763057825648149 4.488448902548327
55 5 1 0.0 0.6936508179328008 5.928053470576417 4.865380359372024
56 5 1 0.0 0.7490488204934957 5.942552445699024 5.347551992383093
57 5 1 0.0 0.852849745934759 5.190653888022879 4.020304125483184
58 5 1 0.0 1.106720528232795 5.351724516599862 4.413705743840388
59 5 1 0.0 1.0227947949329326 5.287442662485207 4.8491494548423715
60 5 1 0.0 1.1551549444476041 5.344560907396219 5.319346858257396
61 6 5 8.861242189860825 0.9668501561322759 6.8396108766723565 2.620433849215662
62 6 6 -8.861242189860825 0.94905517264096 7.079596933226119 2.9968932737939973
63 6 3 0.0 0.8853586900320709 7.087180141487299 3.4962572062227344
64 6 3 0.0 0.7494110859255472 6.687401433713058 3.554097088982813
65 6 1 0.0 0.8803875352833608 7.236119856747351 4.0363718389341114
66 6 2 0.0 0.5134664747720343 7.380347847372765 4.26454296775748
67 6 1 0.0 0.6194862230509547 7.428346687220772 4.707869253810521
68 6 1 0.0 0.4961753851450993 7.524736756749011 5.167512631223031
69 6 1 0.0 0.4028403537232575 6.6390676722642095 3.924696547465814
70 6 1 0.0 0.5266451848843692 6.650000400894948 4.4039791301315345
71 6 1 0.0 0.28580550785341086 6.791573022679358 4.754322324240152
72 6 1 0.0 0.23948071417610306 6.852321049089057 5.24015253330251
73 7 5 8.861242189860825 0.30615770659505226 8.590919020976953 2.374787561641124
74 7 6 -8.861242189860825 0.15889940990532017 8.718865533569284 2.776753170994751
75 7 3 0.0 0.2468372639362768 8.760550065631406 3.2707252527667485
76 7 3 0.0 0.6032929773046385 8.528357291199582 3.296726371941701
77 7 1 0.0 0.22494400257497668 8.906451111836619 3.8112482748975522
78 7 2 0.0 0.049033414481981674 8.650357472102563 4.144364402756398
79 7 1 0.0 0.12825866081082044 8.851521341763778 4.5485162670902435
80 7 1 0.0 0.10890502204482044 8.855402258847743 5.033675022341537
81 7 1 0.0 0.6456613196467014 8.26348111085859 3.7301279365420967
82 7 1 0.0 0.7722173862167181 8.47762706746036 4.158244773522735
83 7 1 0.0 0.6570080131390179 8.362993150662874 4.575824438262561
84 7 1 0.0 0.6960717799282401 8.43373482785958 5.0609398250429924
85 8 5 8.861242189860825 1.1291283380149952 9.330269318649018 2.589826034955829
86 8 6 -8.861242189860825 1.228253056781213 9.269579987439121 3.02124550871466
87 8 3 0.0 1.0947227937165254 9.329578745586431 3.5029600526321394
88 8 3 0.0 0.7617316184888812 9.590240294754599 3.4498314135058705
89 8 1 0.0 1.0559347840230342 9.287645640777802 4.0603366512217764
90 8 2 0.0 1.2268598139030198 9.587402915051786 4.357700153749387
91 8 1 0.0 1.0940815276520721 9.473596976953297 4.781375037016317
92 8 1 0.0 1.0713801028763001 9.560334016845479 5.258585654953276
93 8 1 0.0 0.7085018687150586 9.935085605945812 3.8213683411878585
94 8 1 0.0 0.5254751761921926 9.81691035980868 4.2659971704887
95 8 1 0.0 0.6151728937108867 9.999127409242323 4.665419474944962
96 8 1 0.0 0.5280236062824442 10.025101695619536 5.1487388718321565
97 9 5 8.861242189860825 1.9987019572077376 1.1264487591026602 2.737590203166981
98 9 6 -8.861242189860825 1.810603254930092 1.0510714415162974 3.135797191210239
99 9 3 0.0 1.8664967738652822 1.0147471163844826 3.6348318011319645
100 9 3 0.0 2.2921062817826603 1.0200697494096613 3.656704949914257
101 9 1 0.0 1.773530123422146 0.9898155341929282 4.186798453879245
102 9 2 0.0 1.7782346566408245 0.6084475357090622 4.435859006867339
103 9 1 0.0 1.735394928111751 0.7161358239778323 4.879311667009051
104 9 1 0.0 1.7241302419521825 0.5924592406945058 5.348721777936554
105 9 1 0.0 2.483117503675906 0.7282902536873355 4.028418310623545
106 9 1 0.0 2.472280459834495 0.866759542391867 4.503673788642798
107 9 1 0.0 2.448138176626341 0.6116662178398211 4.871276096660576
108 9 1 0.0 2.447173942269403 0.5736592696952723 5.361604398316044
109 10 5 8.861242189860825 2.0758587788835374 2.3047895016199895 2.758688454279877
110 10 6 -8.861242189860825 1.9924216826081136 2.4762656331071566 3.1627501505922777
111 10 3 0.0 1.9441610767754767 2.3993937825435507 3.6579679980801916
112 10 3 0.0 1.9463191856110584 1.9732112510186015 3.6617110822210392
113 10 1 0.0 1.906988184042023 2.468901787748891 4.212691695868945
114 10 2 0.0 1.5199128015951975 2.456330020079806 4.4525029568982175
115 10 1 0.0 1.6175307221112434 2.479430014121336 4.899738245562771
116 10 1 0.0 1.4830505437206496 2.4715486228551833 5.36623755739466
117 10 1 0.0 1.6447937240081654 1.7686266129008201 4.018108199765917
118 10 1 0.0 1.7722449869768253 1.7581745225446055 4.496444780215026
119 10 1 0.0 1.508832580928651 1.7684521734455805 4.858791554950756
120 10 1 0.0 1.45944681947474 1.7487684529160807 5.347709645198219
121 11 5 8.861242189860825 1.9361695100105012 2.903301462883585 2.4439363802608085
122 11 6 -8.861242189860825 1.99889626862075 2.7379150786514357 2.854234277886912
123 11 3 0.0 1.9818166340509595 2.811712814041877 3.351970417110471
124 11 3 0.0 1.918667726264072 3.2331870693562177 3.356648647779283
125 11 1 0.0 1.9682049238918853 2.7379618928780536 3.9072244946319783
126 11 2 0.0 2.3212866580882405 2.8006057412110126 4.188122837806271
127 11 1 0.0 2.18009469683247 2.7557503708093014 4.621868267039061
128 11 1 0.0 2.2607688931685472 2.7739506540570247 5.10033359115682
129 11 1 0.0 2.1476403833666557 3.471679162861577 3.7445718710822096
130 11 1 0.0 1.9689551853789706 3.4552542839240536 4.206048607432871
131 11 1 0.0 2.190346483958442 3.475583454075259 4.595098127010745
132 11 1 0.0 2.183190538981706 3.4930492667558224 5.086535853582881
133 12 5 8.861242189860825 1.52141467629235 4.519261331553335 2.5757368119005966
134 12 6 -8.861242189860825 1.4421693099965625 4.605754381674659 3.0068641612219893
135 12 3 0.0 1.6181674590122093 4.625455625403663 3.4781555747800614
136 12 3 0.0 1.9926882068762048 4.430613492943278 3.4196665063370664
137 12 1 0.0 1.686159770872183 4.7342129122397605 4.023573273171133
138 12 2 0.0 1.6007603407485023 4.440830227216459 4.361402193511296
139 12 1 0.0 1.736674545263206 4.623525781320438 4.75918597281764
140 12 1 0.0 1.8095520753063539 4.595043840967741 5.238400212314378
141 12 1 0.0 2.140519329432859 4.145057054707072 3.8151344106332434
142 12 1 0.0 2.3260738743348948 4.3440866795863124 4.228795714247076
143 12 1 0.0 2.303189816168123 4.192177280466517 4.649731297526036
144 12 1 0.0 2.4270846627926055 4.236165760304636 5.123632533946579
145 13 5 8.861242189860825 1.7548471332307884 5.8571534342773415 2.536890280197741
146 13 6 -8.861242189860825 1.95283091015824 5.704856049102647 2.907348911726317
147 13 3 0.0 1.9298561682513908 5.631568173059264 3.4049231598685745
148 13 3 0.0 1.580498625677763 5.859733486266507 3.4917569988117085
149 13 1 0.0 2.021536775354489 5.4519226722454155 3.92765992722742
150 13 2 0.0 2.240076818366055 5.687397088185302 4.250594736427982
151 13 1 0.0 2.2135792274351394 5.4606735445781895 4.648057418961265
152 13 1 0.0 2.2959435906302708 5.426247120846098 5.125340956989093
153 13 1 0.0 1.5957064915558703 6.096461767855292 3.9428887146712492
154 13 1 0.0 1.5253649162603464 5.855013365633448 4.369402122045896
155 13 1 0.0 1.6943107923990177 5.943649074575033 4.77484991519031
156 13 1 0.0 1.7185557852322773 5.842185051022176 5.255458418555027
157 14 5 8.861242189860825 1.520155789910668 7.277568845651703 2.6919891136722356
158 14 6 -8.861242189860825 1.4094788343139846 7.272158841262563 3.124832053413538
159 14 3 0.0 1.5585968257728187 7.3059346277607915 3.604521645571507
160 14 3 0.0 1.9805164343609474 7.28977676742289 3.546444234060774
161 14 1 0.0 1.5721061504776448 7.367299282074645 4.161283214806658
162 14 2 0.0 1.6131713501903915 7.026766999910651 4.461026865501491
163 14 1 0.0 1.6590027419532984 7.200359139599147 4.8827465877399785
164 14 1 0.0 1.7340190868939993 7.147423603760789 5.359547405362102
165 14 1 0.0 2.2304234185010725 7.044861317290106 3.917057651393663
166 14 1 0.0 2.314628489969311 7.251646576432928 4.358994657494231
167 14 1 0.0 2.3537237982596224 7.054801753360108 4.759632378420046
168 14 1 0.0 2.44534355658032 7.088931831241723 5.241616049231148
169 15 5 8.861242189860825 1.9263400203895726 8.885469958859046 2.5638799420745366
170 15 6 -8.861242189860825 1.7273310895602756 8.801311106699568 2.954961008076092
171 15 3 0.0 1.7557072712800166 8.801224804585894 3.4576277652999243
172 15 3 0.0 2.1725281040463003 8.877860976624838 3.502766537955864
173 15 1 0.0 1.6322077830118964 8.790600949223178 4.004040226472775
174 15 2 0.0 1.6821912660135696 8.428989991128594 4.2764994130825675
175 15 1 0.0 1.5937098797913771 8.55149586992239 4.709218288925327
176 15 1 0.0 1.5719912667537803 8.45272602974362 5.184130347275781
177 15 1 0.0 2.383509168494075 8.641731297395978 3.9021675251537906
178 15 1 0.0 2.3194977179918794 8.801519902101925 4.366418632671694
179 15 1 0.0 2.312956515030879 8.565798416634669 4.7474429165204395
180 15 1 0.0 2.2861829699585705 8.554210576761273 5.238376924825855
181 16 5 8.861242189860825 1.7495506723101588 9.939697214655164 2.6411853141843946
182 16 6 -8.861242189860825 1.7185078955267277 9.686552480052958 3.0080446284784257
183 16 3 0.0 1.663413939828932 9.663499034048478 3.5079568994098933
184 16 3 0.0 1.7126872179089971 10.076390338721948 3.6014616205844407
185 16 1 0.0 1.566314223400053 9.48957836814192 4.031650335181507
186 16 2 0.0 1.8882273148492932 9.394548999581428 4.339605238730256
187 16 1 0.0 1.6906313503388695 9.30730064815997 4.743864847819385
188 16 1 0.0 1.71688681945687 9.208339447059528 5.2185078438343195
189 16 1 0.0 1.9492420937288863 10.160533820285606 4.045030159571486
190 16 1 0.0 1.719932703033778 10.10510594580164 4.480350626457775
191 16 1 0.0 1.8919893178518414 9.986132489908611 4.876619157910544
192 16 1 0.0 1.8323927221042116 9.908585954000879 5.358596420655891
193 17 5 8.861242189860825 3.377207043658677 0.6511385422876316 2.6743177886481924
194 17 6 -8.861242189860825 3.3522576140799383 0.4823902592232863 3.0872744571475215
195 17 3 0.0 3.275824053552533 0.5636197425830224 3.5782314469268535
196 17 3 0.0 3.2822754779799177 0.9897746132913696 3.5790211203120976
197 17 1 0.0 3.170406480806301 0.49937449014775265 4.1247579792434905
198 17 2 0.0 3.484711389727538 0.5067242583381069 4.4543838991749976
199 17 1 0.0 3.2770184440849226 0.49043303217633216 4.862649141190408
200 17 1 0.0 3.2897023334747715 0.5006400893468979 5.347936249592996
201 17 1 0.0 3.4886986577292496 1.1920730108449578 3.9988499101209247
202 17 1 0.0 3.2450500051733293 1.2102631360710059 4.429504537720366
203 17 1 0.0 3.408320066158285 1.1985888575465355 4.84662982985262
204 17 1 0.0 3.3332905986530657 1.222554412688407 5.332081714628153
205 18 5 8.861242189860825 3.1423184296511715 1.8387761951131476 2.413081510330009
206 18 6 -8.861242189860825 3.048058825754947 1.9934007576054684 2.8215396341063865
207 18 3 0.0 3.124484274983477 1.9628091106282608 3.3182310733323996
208 18 3 0.0 3.3440865546267537 1.5977740652804715 3.3314398860367866
209 18 1 0.0 3.1450726974784855 2.0707584744485774 3.867644050372607
210 18 2 0.0 2.86188227468669 1.8968172265716874 4.17916045231826
211 18 1 0.0 3.0031863977868825 2.018778817840711 4.597778161699356
212 18 1 0.0 2.966998232393297 2.0013280066900703 5.081673324439709
213 18 1 0.0 3.249489106106133 1.315098777504502 3.7448856357514018
214 18 1 0.0 3.4380290571387158 1.42672840192526 4.188901928962788
215 18 1 0.0 3.2671111838917692 1.3484650026851404 4.595655947841076
216 18 1 0.0 3.312448142430171 1.365745986103641 5.085056835725506
217 19 5 8.861242189860825 3.196642757127534 2.8789622008489775 2.680087288035704
218 19 6 -8.861242189860825 3.1519902887467475 2.759424566956731 3.108279509219695
219 19 3 0.0 3.2232419420665606 2.8734281309809226 3.5934655284370094
220 19 3 0.0 3.473117338838948 3.2156255964862006 3.5474938090950934
221 19 1 0.0 3.1975244180866715 2.8866447100485324 4.153014899474384
222 19 2 0.0 3.5107999660838405 2.711401828561305 4.433448858670231
223 19 1 0.0 3.406619393189701 2.822297335068597 4.86580388226242
224 19 1 0.0 3.507418816518985 2.8265709045105125 5.340766886620224
225 19 1 0.0 3.8277258220952928 3.262264830244595 3.9106315089005297
226 19 1 0.0 3.718479953772779 3.4223029282984347 4.366276219444433
227 19 1 0.0 3.9152892999286486 3.320413067273627 4.755726406779811
228 19 1 0.0 3.9538378859103904 3.387070632447506 5.241460981196118
229 20 5 8.861242189860825 2.9044729891329224 4.367058312289459 2.552769378547713
230 20 6 -8.861242189860825 3.0601885887441447 4.164122358259124 2.9191043587653382
231 20 3 0.0 3.0447616496842818 4.115559014271942 3.4199862761141238
232 20 3 0.0 2.802840574291346 4.453563261519131 3.5142069766699624
233 20 1 0.0 3.1011851536247375 3.9278868411487693 3.944893040471885
234 20 2 0.0 3.407995968650316 4.079751894211451 4.245390913004687
235 20 1 0.0 3.3295543852821443 3.8863102999696717 4.653446716998891
236 20 1 0.0 3.424893070480551 3.8367939890953724 5.126973181634101
237 20 1 0.0 2.9280191081834857 4.680843111802135 3.9529159780032703
238 20 1 0.0 2.8052860580239267 4.489654261284886 4.39285049205882
239 20 1 0.0 3.0198633523328 4.523354057009026 4.784778826661908
240 20 1 0.0 3.037729531994952 4.43147297066557 5.267589314178613
241 21 5 8.861242189860825 3.099108319647194 6.322924256566702 2.4844956693386315
242 21 6 -8.861242189860825 3.2002380532488788 6.454489394421283 2.8993390839115167
243 21 3 0.0 3.245067497296081 6.33539561002941 3.38645926971848
244 21 3 0.0 3.0609952807911567 5.951039766506178 3.380276798517195
245 21 1 0.0 3.378122393707946 6.334798019649271 3.9307272230804173
246 21 2 0.0 3.095918748988676 6.45040381877 4.269092771078362
247 21 1 0.0 3.299154559236711 6.367310552342481 4.671427191759332
248 21 1 0.0 3.2926475861772424 6.350095031499315 5.156638411530253
249 21 1 0.0 2.796956296298078 5.84207480305826 3.8024159165240157
250 21 1 0.0 3.018852224428016 5.7120373138358795 4.225513308736447
251 21 1 0.0 2.883439373860443 5.7794497912530405 4.647302152494982
252 21 1 0.0 2.950837613013142 5.713099117954544 5.129922465755255
253 22 5 8.861242189860825 3.4601307792957328 7.2792851520717194 2.6681179547370535
254 22 6 -8.861242189860825 3.309208013847877 7.429993591953369 3.060725840737251
255 22 3 0.0 3.351960973752528 7.43296808339723 3.562365572791054
256 22 3 0.0 3.631258970009057 7.114463774078953 3.60924683261223
257 22 1 0.0 3.311324540759556 7.564032944948759 4.105598717960154
258 22 2 0.0 3.0407332538490124 7.353921678405594 4.405812730082929
259 22 1 0.0 3.1259705181167323 7.515531781485449 4.826168597081519
260 22 1 0.0 3.0568662787012593 7.510556148369835 5.306760409140141
261 22 1 0.0 3.5572921356024594 6.8355499643132935 4.029398445334104
262 22 1 0.0 3.6887849197190112 6.996532797439858 4.478790401186332
263 22 1 0.0 3.5041376813539804 6.90444021735345 4.876548198076239
264 22 1 0.0 3.5084379369343566 6.948556058279734 5.3663467297612595
265 23 5 8.861242189860825 3.059652512719758 8.453544841637903 2.644299123875266
266 23 6 -8.861242189860825 2.882974874884339 8.505611304224711 3.0513688511875863
267 23 3 0.0 2.954194460159269 8.617641269415632 3.5370190766869234
268 23 3 0.0 3.3803059212874875 8.61652210196136 3.545850183584142
269 23 1 0.0 2.8786179849033613 8.760722680883305 4.073440062210922
270 23 2 0.0 2.883297427032755 8.470681759274903 4.424651122072422
271 23 1 0.0 2.8571096293018687 8.706567504362683 4.816766393481037
272 23 1 0.0 2.8584136002825504 8.728432521703443 5.301832227491486
273 23 1 0.0 3.5770159765133944 8.442881756430001 3.982823372829993
274 23 1 0.0 3.5844871113773813 8.716642266697471 4.395325881892431
275 23 1 0.0 3.566848318580152 8.583210827404688 4.822727139408631
276 23 1 0.0 3.580935479802185 8.6927434664396 5.301967636585408
277 24 5 8.861242189860825 3.586642233552836 9.849440725854544 2.6995874894902796
278 24 6 -8.861242189860825 3.7385632004719596 9.810421430821197 3.117952379935203
279 24 3 0.0 3.6388289388546626 9.710798598402144 3.601281928251284
280 24 3 0.0 3.2129848681514908 9.70735134285035 3.5841016440348255
281 24 1 0.0 3.6827990868325697 9.583169106831557 4.145073162640421
282 24 2 0.0 3.6538461407533123 9.882550726798426 4.487165569008168
283 24 1 0.0 3.658246555427057 9.657688988893446 4.8865402135895595
284 24 1 0.0 3.62746371217136 9.648964853003582 5.371045062545638
285 24 1 0.0 2.9882382017839766 9.890541318272144 4.003293428788023
286 24 1 0.0 2.9581600532850145 9.627994094369932 4.422009579688588
287 24 1 0.0 2.948322338615713 9.773150296598152 4.845825350105737
288 24 1 0.0 2.9059791007599065 9.676494284023393 5.326171024282706
289 25 5 8.861242189860825 4.483582436543291 0.48715695873070336 2.448789388510588
290 25 6 -8.861242189860825 4.504297602736261 0.38134872006432335 2.882387319376787
291 25 3 0.0 4.36433074950049 0.48506802202621196 3.354754412166689
292 25 3 0.0 4.184660358637557 0.8662359962094768 3.2908815353422303
293 25 1 0.0 4.257564671960675 0.45428702887532557 3.903922057588044
294 25 2 0.0 4.512232215743683 0.6433372684108477 4.230876627873004
295 25 1 0.0 4.302968981615435 0.5915951661971423 4.635368809822365
296 25 1 0.0 4.274291674865999 0.6708405249476851 5.113559595850263
297 25 1 0.0 4.251079548472864 1.1927193912649001 3.676612617208373
298 25 1 0.0 3.9929047271690057 1.1586981079598981 4.0977388082103925
299 25 1 0.0 4.113886953183656 1.2758818674103085 4.512971488088945
300 25 1 0.0 4.000497322154205 1.3286655308152844 4.988601573041576
301 26 5 8.861242189860825 4.115558907743368 1.7660449269549459 2.5568536599494784
302 26 6 -8.861242189860825 3.9741589876754833 1.7618197387836587 2.9806695132646253
303 26 3 0.0 4.070263915666754 1.863610030353573 3.4642826471980146
304 26 3 0.0 4.486614964645191 1.9498105082922317 3.4347614699290223
305 26 1 0.0 4.0222362847026565 1.9632005794149536 4.013560934436693
306 26 2 0.0 4.1204706860968034 1.664464156949869 4.343108190881998
307 26 1 0.0 4.087366180191552 1.8715857970982854 4.750645906226801
308 26 1 0.0 4.13335104090459 1.8708764513288487 5.234023121310077
309 26 1 0.0 4.757330326450891 1.8004278130600309 3.8399643657608404
310 26 1 0.0 4.751498547521487 2.0505604293957904 4.267233156360405
311 26 1 0.0 4.804310340144637 1.8968063503395496 4.684794539468341
312 26 1 0.0 4.844593145113941 1.9846919624798274 5.166998558595127
313 27 5 8.861242189860825 4.274418350833047 3.6450356531254866 2.505237909423151
314 27 6 -8.861242189860825 4.493280900446098 3.6431555533500464 2.8947598173221074
315 27 3 0.0 4.51142912461948 3.490001762574523 3.3740234632263313
316 27 3 0.0 4.1170744533565715 3.3325427892864314 3.4106469976520124
317 27 1 0.0 4.681435676772439 3.360122084516457 3.891865725969363
318 27 2 0.0 4.602110926453111 3.6108733996138476 4.263788034951812
319 27 1 0.0 4.747526203968443 3.3833838164316123 4.634173183366506
320 27 1 0.0 4.7973842169175365 3.3398185286271396 5.115198013173828
321 27 1 0.0 3.9100837732873117 3.400066170125023 3.871501459437413
322 27 1 0.0 4.039992958926405 3.12400430687191 4.261466080864376
323 27 1 0.0 4.045433316897313 3.2342066420521514 4.695761785143715
324 27 1 0.0 4.115023073849022 3.1048656944535855 5.165118244842736
325 28 5 8.861242189860825 5.021626846374347 4.304642677114243 2.3678476625217444
326 28 6 -8.861242189860825 5.01138927048518 4.136472790991637 2.7816661596590233
327 28 3 0.0 4.847149426835944 4.177752751253957 3.255797283499027
328 28 3 0.0 4.687552192835299 4.572587198716898 3.238924219591632
329 28 1 0.0 4.705787495836248 4.073377440627266 3.7878256348355386
330 28 2 0.0 4.947518553562772 4.200396593696479 4.152417286466685
331 28 1 0.0 4.711933924006494 4.101268716303908 4.5328851797217355
332 28 1 0.0 4.65731767251079 4.112000080157992 5.015244532849952
333 28 1 0.0 4.743600339827155 4.836286402470154 3.671489496401498
334 28 1 0.0 4.458947631089624 4.754697728431767 4.068320793677699
335 28 1 0.0 4.558997771491425 4.804584418825972 4.5022426742698265
336 28 1 0.0 4.418968555533747 4.793735964643942 4.973561495217633
337 29 5 8.861242189860825 4.6651374560628005 5.914246094617178 2.382255551950329
338 29 6 -8.861242189860825 4.749536431576295 6.130040406421151 2.7642781887885866
339 29 3 0.0 4.769146219988686 6.116899483322022 3.2671915573656145
340 29 3 0.0 4.577635485710544 5.741960602159582 3.3334840330966595
341 29 1 0.0 4.876660298582658 6.230783772579768 3.8051531351707344
342 29 2 0.0 4.581456564304756 6.418673808901428 4.096781205621022
343 29 1 0.0 4.763962644166786 6.421021181597656 4.51721942012142
344 29 1 0.0 4.734503201275077 6.507543368455789 4.994099588563848
345 29 1 0.0 4.292015751850393 5.728080878473342 3.755408320668457
346 29 1 0.0 4.491217467342252 5.688788506018904 4.206998556206019
347 29 1 0.0 4.3377283854896485 5.84582954527071 4.597595694792918
348 29 1 0.0 4.3811803718942635 5.8830289800483735 5.086058004689197
349 30 5 8.861242189860825 4.598862506661558 6.789898740271379 2.3740192611421023
350 30 6 -8.861242189860825 4.695036128801874 6.6908123459421285 2.7989477115837893
351 30 3 0.0 4.555106241782812 6.7014826320533345 3.2824607472592575
352 30 3 0.0 4.21626674730037 6.957981648132196 3.2501146498268776
353 30 1 0.0 4.511654714215839 6.6057770168040255 3.8328096980096658
354 30 2 0.0 4.6719695178324585 6.879872704050212 4.159406636038082
355 30 1 0.0 4.537732149236262 6.723118977866185 4.568663120112866
356 30 1 0.0 4.507968513769727 6.763476766379331 5.051626905047126
357 30 1 0.0 4.15061960625356 7.264529468369676 3.6519980537177936
358 30 1 0.0 3.9660461459491336 7.1002319554208855 4.08106438869522
359 30 1 0.0 4.047053006359457 7.245699482809565 4.497074001530551
360 30 1 0.0 3.9543211740645416 7.22346561751351 4.979540335871837
361 31 5 8.861242189860825 4.150787595709264 8.343705860512506 2.4560858914262007
362 31 6 -8.861242189860825 4.019658312880306 8.309579611613282 2.8818465958745616
363 31 3 0.0 4.074028824938697 8.460269650098349 3.359146756858032
364 31 3 0.0 4.434054788653189 8.684905317712694 3.319519233890346
365 31 1 0.0 3.994096093001564 8.561576608017498 3.9043799420847396
366 31 2 0.0 4.190402125760781 8.3311275310719 4.244750337966036
367 31 1 0.0 4.086930329241874 8.531885530973852 4.6435887568250775
368 31 1 0.0 4.130139688787454 8.569130879321637 5.125786203854814
369 31 1 0.0 4.739790514020171 8.657867015987485 3.726441806398999
370 31 1 0.0 4.646845211206106 8.909294586161385 4.142740139883675
371 31 1 0.0 4.749925685372684 8.802687484431894 4.5655831989918365
372 31 1 0.0 4.7568471647756265 8.920819546569646 5.042934443127064
373 32 5 8.861242189860825 4.633129971907883 9.265171551071179 2.4242730156845296
374 32 6 -8.861242189860825 4.856975718781205 9.370172897127704 2.7964281796478634
375 32 3 0.0 4.880993256663886 9.355786631988831 3.299116231230928
376 32 3 0.0 4.486846874655888 9.216770051288561 3.382622147967747
377 32 1 0.0 5.057395722320204 9.373641733757578 3.830618755290246
378 32 2 0.0 4.983327368370782 9.7180905699304 4.119346516611431
379 32 1 0.0 5.133062656478187 9.601417142044657 4.536538230668944
380 32 1 0.0 5.189015643242104 9.692640742292813 5.010158501221042
381 32 1 0.0 4.285922165287961 9.410513474649045 3.8091009054843354
382 32 1 0.0 4.4203130836407665 9.252683145579415 4.25875368609503
383 32 1 0.0 4.4315403425990665 9.47892972627223 4.645371513297305
384 32 1 0.0 4.5069124707772295 9.484400179099191 5.131330789059437
385 33 5 8.861242189860825 5.429563817205216 0.613669319723964 2.6535928353016622
386 33 6 -8.861242189860825 5.3722954592058345 0.38045305500979476 3.030371518584513
387 33 3 0.0 5.385996528658925 0.37130195566452107 3.5335689172578206
388 33 3 0.0 5.5787014172543286 0.7449283475457908 3.6036999623866555
389 33 1 0.0 5.315255266882454 0.23280804210687586 4.071850142473774
390 33 2 0.0 5.630539258375666 0.03535821325265753 4.334727322443203
391 33 1 0.0 5.476350495119236 0.012671663206262673 4.765764927867495
392 33 1 0.0 5.538022311274959 10.279217046136235 5.2353421228984445
393 33 1 0.0 5.8915727021327235 0.7432244565895572 4.006068002117783
394 33 1 0.0 5.7224838715885 0.7605953104842513 4.4711122748929935
395 33 1 0.0 5.902706693451822 0.5881543359879465 4.843363206018628
396 33 1 0.0 5.892032832739674 0.5291020703211923 5.331488394752639
397 34 5 8.861242189860825 5.700094790944309 2.1558490863683764 2.5826717245691557
398 34 6 -8.861242189860825 5.8279419467882105 1.9651441818607618 2.9659711000850835
399 34 3 0.0 5.781303985617008 1.938806914319102 3.4665810609040846
400 34 3 0.0 5.543731916267648 2.28661617310282 3.5316844376139684
401 34 1 0.0 5.801039427588284 1.7727585933738352 4.001342722835531
402 34 2 0.0 6.093496738138585 1.9297097231280016 4.313320136007875
403 34 1 0.0 5.985471394827494 1.7562414333368526 4.723590228991653
404 34 1 0.0 6.0509640193690055 1.724953089275614 5.203694799168247
405 34 1 0.0 5.648812070721276 2.5295026128880886 3.9672940358224533
406 34 1 0.0 5.49475226817941 2.3607936660184117 4.406568236416745
407 34 1 0.0 5.686418770950349 2.40604376797585 4.809064560521594
408 34 1 0.0 5.672869397081582 2.334813437524087 5.295490254488297
409 35 5 8.861242189860825 5.712373266628174 2.877530301276498 2.6186975363555276
410 35 6 -8.861242189860825 5.4711532299621295 2.9336542476438 2.990577441279854
411 35 3 0.0 5.46214061062718 3.0464559433946063 3.481162432982041
412 35 3 0.0 5.880764703743765 3.0392298317710327 3.5608610544429307
413 35 1 0.0 5.300402889217061 3.1926101404508724 3.997313019328824
414 35 2 0.0 5.242217142102649 2.903843134841691 4.344764997678892
415 35 1 0.0 5.154584671944803 3.141541795899703 4.726736421037662
416 35 1 0.0 5.075401164492891 3.1651937911762578 5.205212332568151
417 35 1 0.0 5.999347112786383 2.8644031700461 4.024720121572899
418 35 1 0.0 5.9420655549621975 3.139563395594429 4.432353079306072
419 35 1 0.0 5.851507822023394 3.0079941317355807 4.851012531297952
420 35 1 0.0 5.787197811782935 3.1190981252275183 5.325762388035695
421 36 5 8.861242189860825 5.665845027815917 4.526408928355144 2.6157219242196392
422 36 6 -8.861242189860825 5.458445237173672 4.535380219299051 3.011368875316051
423 36 3 0.0 5.495550780670229 4.533893823490009 3.5134645367435255
424 36 3 0.0 5.909660625580259 4.440457549403679 3.551318431168012