Lipid soup setup

4400 atoms
1408 bonds
1024 angles
0 dihedrals
0 impropers

6 atom types
2 bond types
3 angle types
0 dihedral types
0 improper types

0 12.325683431902473 xlo xhi
0 12.325683431902473 ylo yhi
0 9.654046875 zlo zhi

Masses

1 1
2 1
3 1
4 1
5 1
6 1

Atoms

1 1 5 8.861242189860825 0.6628894984329435 0.7875123587831073 1.6208040234326366
2 1 6 -8.861242189860825 0.7990263263976403 0.6025008162092824 2.0040391474983954
3 1 3 0.0 0.7541061364589869 0.5744908315735631 2.5047153914440727
4 1 3 0.0 0.5023014179552255 0.9121153049677717 2.5699405169262874
5 1 1 0.0 0.7813714012829566 0.4096785087817 3.0395285094771447
6 1 2 0.0 1.0673839751145784 0.5788538854860855 3.351091250321219
7 1 1 0.0 0.9671657615387106 0.4012340295262248 3.761566301930842
8 1 1 0.0 1.0344613423857774 0.3729464411772054 4.241607716593925
9 1 1 0.0 0.5976566487548423 1.1593934046114547 3.0053165669550865
10 1 1 0.0 0.45127897910977616 0.9846221590936435 3.4448476174967984
11 1 1 0.0 0.6413546905844152 1.0380329546289122 3.8470980640561723
12 1 1 0.0 0.6313513617550673 0.9665427706757148 4.33357148395716
13 2 5 8.861242189860825 0.7454490240652493 2.4886856760315186 1.9559679211475214
14 2 6 -8.861242189860825 0.5949043857105729 2.330398557599804 2.345728318228571
15 2 3 0.0 0.5778921342430198 2.3745080738325797 2.846970792319389
16 2 3 0.0 0.8782414868165835 2.672246277247257 2.899814400501336
17 2 1 0.0 0.4369985436589379 2.327955352223385 3.387260906862797
18 2 2 0.0 0.6557199582486678 2.0711845658812837 3.6934055590066124
19 2 1 0.0 0.479756063684632 2.148091661825506 4.10958373955041
20 2 1 0.0 0.47774627399718067 2.080940401264521 4.590473863797483
21 2 1 0.0 1.1512974564569896 2.6161972639764786 3.3265348348585726
22 2 1 0.0 0.9725694953099789 2.7394091566029686 3.771545059730428
23 2 1 0.0 1.066207496923313 2.5617871291651664 4.172131193979059
24 2 1 0.0 1.0106717687533298 2.565047627109254 4.660774676806036
25 3 5 8.861242189860825 0.5249263047824656 3.672508555771344 1.7093044803699151
26 3 6 -8.861242189860825 0.6632870580484872 3.833298877979307 2.1025403400921077
27 3 3 0.0 0.7469507137670166 3.7513225412833457 2.5921926217049793
28 3 3 0.0 0.5557966602151483 3.3724648930323218 2.631906957429483
29 3 1 0.0 0.9255824437701143 3.7896387791956716 3.1218662368479024
30 3 2 0.0 0.675277790526325 3.938347795779289 3.472191872373439
31 3 1 0.0 0.9102499585097197 3.8816247203307714 3.8616181741845876
32 3 1 0.0 0.9445314433637162 3.902345135580623 4.3455232132531645
33 3 1 0.0 0.32644490568592693 3.3034039355268177 3.0818177712422985
34 3 1 0.0 0.5808792997206937 3.2010321878093397 3.4940581370755077
35 3 1 0.0 0.4829670567770969 3.304452586544505 3.918916142456988
36 3 1 0.0 0.589728552787847 3.2741177484899504 4.398028949454717
37 4 5 8.861242189860825 0.9344122633310595 5.54029673827881 1.6408869568552875
38 4 6 -8.861242189860825 1.112415225519268 5.529649060984705 2.050561510070394
39 4 3 0.0 1.0813573937361047 5.366670956355149 2.525906261226074
40 4 3 0.0 0.685071676319576 5.209959267794755 2.5188852121689322
41 4 1 0.0 1.1974701407847785 5.225611107942813 3.0555774014337755
42 4 2 0.0 1.0810399301625566 5.469004983220343 3.4225900299453604
43 4 1 0.0 1.1875677420413244 5.23345955378422 3.801077080616235
44 4 1 0.0 1.1880506370399238 5.179892840860365 4.2836732023648825
45 4 1 0.0 0.4322795639506809 5.26882118169903 2.9575454526267566
46 4 1 0.0 0.5213078683725778 4.984371450123784 3.352920295073011
47 4 1 0.0 0.48261583296766875 5.085658379880926 3.787697013844973
48 4 1 0.0 0.5037797182160808 4.946499722257401 4.258923349302895
49 5 5 8.861242189860825 0.5695047718755541 6.701403286203641 1.9831960397375965
50 5 6 -8.861242189860825 0.535909538070354 6.875734865347726 2.393210097923699
51 5 3 0.0 0.7051035579373397 6.888805451891086 2.867216033924117
52 5 3 0.0 0.961127868937308 6.548192234476538 2.8580287280542107
53 5 1 0.0 0.8146151195312586 7.037965226449102 3.396073431680157
54 5 2 0.0 0.6137114920763438 6.861100036287665 3.7646535165189157
55 5 1 0.0 0.8156555080038582 7.026095681215933 4.1415849733426136
56 5 1 0.0 0.8710535105645532 7.04059465633854 4.623756606353682
57 5 1 0.0 0.9748544360058164 6.288696098662395 3.2965087394537735
58 5 1 0.0 1.2287252183038524 6.449766727239378 3.6899103578109775
59 5 1 0.0 1.14479948500399 6.385484873124723 4.12535406881296
60 5 1 0.0 1.2771596345186613 6.442603118035735 4.595551472227985
61 6 5 8.861242189860825 1.0888548462033332 8.181662467453986 1.896638463186251
62 6 6 -8.861242189860825 1.0710598627120174 8.421648524007749 2.273097887764586
63 6 3 0.0 1.0073633801031283 8.429231732268928 2.7724618201933233
64 6 3 0.0 0.8714157759966045 8.029453024494687 2.830301702953402
65 6 1 0.0 1.0023922253544182 8.57817144752898 3.312576452904701
66 6 2 0.0 0.6354711648430916 8.722399438154394 3.5407475817280694
67 6 1 0.0 0.741490913122012 8.770398278002402 3.9840738677811096
68 6 1 0.0 0.6181800752161566 8.86678834753064 4.4437172451936195
69 6 1 0.0 0.5248450437943148 7.981119263045839 3.200901161436403
70 6 1 0.0 0.6486498749554266 7.992051991676577 3.680183744102124
71 6 1 0.0 0.40781019792446815 8.133624613460986 4.030526938210741
72 6 1 0.0 0.36148540424716036 8.194372639870688 4.516357147273098
73 7 5 8.861242189860825 0.42816239666610956 10.176979991900698 1.6509921756117127
74 7 6 -8.861242189860825 0.28090409997637744 10.304926504493029 2.05295778496534
75 7 3 0.0 0.3688419540073341 10.346611036555151 2.5469298667373375
76 7 3 0.0 0.7252976673756957 10.114418262123326 2.57293098591229
77 7 1 0.0 0.346948692646034 10.492512082760364 3.087452888868141
78 7 2 0.0 0.17103810455303897 10.236418443026308 3.4205690167269878
79 7 1 0.0 0.25026335088187773 10.437582312687523 3.824720881060833
80 7 1 0.0 0.23090971211587774 10.441463229771488 4.309879636312126
81 7 1 0.0 0.7676660097177586 9.849542081782335 3.0063325505126857
82 7 1 0.0 0.8942220762877753 10.063688038384106 3.4344493874933235
83 7 1 0.0 0.7790127032100751 9.949054121586618 3.8520290522331506
84 7 1 0.0 0.8180764699992975 10.019795798783324 4.337144439013581
85 8 5 8.861242189860825 1.2511330280860529 11.160339669714878 1.8660306489264178
86 8 6 -8.861242189860825 1.3502577468522705 11.099650338504981 2.297450122685249
87 8 3 0.0 1.2167274837875826 11.159649096652291 2.7791646666027283
88 8 3 0.0 0.8837363085599386 11.420310645820459 2.7260360274764595
89 8 1 0.0 1.1779394740940916 11.117715991843662 3.3365412651923654
90 8 2 0.0 1.3488645039740774 11.417473266117646 3.633904767719976
91 8 1 0.0 1.2160862177231295 11.303667328019158 4.057579650986906
92 8 1 0.0 1.1933847929473576 11.390404367911339 4.534790268923865
93 8 1 0.0 0.830506558786116 11.765155957011672 3.0975729551584474
94 8 1 0.0 0.64747986626325 11.64698071087454 3.5422017844592895
95 8 1 0.0 0.7371775837819441 11.829197760308183 3.9416240889155505
96 8 1 0.0 0.6500282963535016 11.855172046685396 4.424943485802745
97 9 5 8.861242189860825 2.3647160274209096 1.2484534491737174 2.01379481713757
98 9 6 -8.861242189860825 2.176617325143264 1.1730761315873548 2.4120018051808283
99 9 3 0.0 2.2325108440784542 1.1367518064555397 2.9110364151025543
100 9 3 0.0 2.6581203519958323 1.1420744394807187 2.932909563884846
101 9 1 0.0 2.1395441936353183 1.1118202242639856 3.4630030678498342
102 9 2 0.0 2.1442487268539963 0.7304522257801195 3.712063620837929
103 9 1 0.0 2.101408998324923 0.8381405140488896 4.15551628097964
104 9 1 0.0 2.0901443121653545 0.7144639307655631 4.6249263919071435
105 9 1 0.0 2.849131573889078 0.8502949437583928 3.3046229245941343
106 9 1 0.0 2.838294530047667 0.9887642324629243 3.779878402613387
107 9 1 0.0 2.814152246839513 0.7336709079108784 4.147480710631166
108 9 1 0.0 2.813188012482575 0.6956639597663294 4.637809012286634
109 10 5 8.861242189860825 2.4418728490967094 2.670803571833161 2.034893068250466
110 10 6 -8.861242189860825 2.3584357528212854 2.842279703320328 2.4389547645628666
111 10 3 0.0 2.3101751469886485 2.765407852756722 2.9341726120507805
112 10 3 0.0 2.31233325582423 2.339225321231773 2.937915696191628
113 10 1 0.0 2.2730022542551946 2.8349158579620624 3.488896309839534
114 10 2 0.0 1.885926871808369 2.8223440902929777 3.7287075708688064
115 10 1 0.0 1.983544792324415 2.845444084334508 4.17594285953336
116 10 1 0.0 1.8490646139338212 2.837562693068355 4.642442171365249
117 10 1 0.0 2.010807794221337 2.1346406831139917 3.2943128137365063
118 10 1 0.0 2.138259057189997 2.1241885927577773 3.772649394185615
119 10 1 0.0 1.8748466511418225 2.134466243658752 4.1349961689213455
120 10 1 0.0 1.8254608896879116 2.1147825231292523 4.623914259168808
121 11 5 8.861242189860825 2.302183580223673 3.5133249132388724 1.7201409942313972
122 11 6 -8.861242189860825 2.3649103388339214 3.347938529006723 2.130438891857501
123 11 3 0.0 2.347830704264131 3.4217362643971643 2.62817503108106
124 11 3 0.0 2.2846817964772432 3.843210519711505 2.632853261749872
125 11 1 0.0 2.334218994105057 3.347985343233341 3.1834291086025672
126 11 2 0.0 2.687300728301412 3.4106291915663 3.4643274517768603
127 11 1 0.0 2.5461087670456415 3.3657738211645887 3.89807288100965
128 11 1 0.0 2.626782963381719 3.383974104412312 4.376538205127409
129 11 1 0.0 2.5136544535798273 4.081702613216864 3.0207764850527985
130 11 1 0.0 2.334969255592142 4.065277734279341 3.4822532214034596
131 11 1 0.0 2.5563605541716137 4.085606904430546 3.871302740981334
132 11 1 0.0 2.5492046091948777 4.103072717111109 4.36274046755347
133 12 5 8.861242189860825 1.8874287465055215 5.373294162050736 1.8519414258711853
134 12 6 -8.861242189860825 1.808183380209734 5.45978721217206 2.283068775192578
135 12 3 0.0 1.9841815292253808 5.4794884559010635 2.75436018875065
136 12 3 0.0 2.3587022770893764 5.284646323440679 2.695871120307655
137 12 1 0.0 2.0521738410853545 5.588245742737161 3.2997778871417216
138 12 2 0.0 1.9667744109616738 5.29486305771386 3.6376068074818844
139 12 1 0.0 2.1026886154763775 5.477558611817838 4.035390586788228
140 12 1 0.0 2.175566145519525 5.449076671465142 4.514604826284967
141 12 1 0.0 2.5065333996460306 4.999089885204473 3.0913390246038315
142 12 1 0.0 2.6920879445480663 5.198119510083713 3.505000328217664
143 12 1 0.0 2.6692038863812946 5.0462101109639175 3.9259359114966244
144 12 1 0.0 2.7930987330057766 5.090198590802037 4.399837147917168
145 13 5 8.861242189860825 2.12086120344396 6.9551956449168575 1.8130948941683303
146 13 6 -8.861242189860825 2.318844980371412 6.802898259742163 2.183553525696906
147 13 3 0.0 2.2958702384645626 6.72961038369878 2.6811277738391635
148 13 3 0.0 1.9465126958909347 6.957775696906023 2.7679616127822975
149 13 1 0.0 2.387550845567661 6.5499648828849315 3.203864541198009
150 13 2 0.0 2.6060908885792267 6.785439298824818 3.5267993503985706
151 13 1 0.0 2.579593297648311 6.558715755217706 3.9242620329318543
152 13 1 0.0 2.6619576608434428 6.524289331485614 4.401545570959682
153 13 1 0.0 1.961720561769042 7.194503978494808 3.219093328641838
154 13 1 0.0 1.8913789864735184 6.9530555762729644 3.6456067360164846
155 13 1 0.0 2.0603248626121893 7.041691285214549 4.051054529160899
156 13 1 0.0 2.084569855445449 6.940227261661692 4.531663032525616
157 14 5 8.861242189860825 1.8861698601238397 8.619620436433332 1.9681937276428245
158 14 6 -8.861242189860825 1.7754929045271564 8.614210432044192 2.401036667384127
159 14 3 0.0 1.9246108959859904 8.647986218542421 2.880726259542096
160 14 3 0.0 2.346530504574119 8.63182835820452 2.822648848031363
161 14 1 0.0 1.9381202206908168 8.709350872856273 3.437487828777247
162 14 2 0.0 1.9791854204035633 8.36881859069228 3.73723147947208
163 14 1 0.0 2.02501681216647 8.542410730380777 4.158951201710567
164 14 1 0.0 2.100033157107171 8.489475194542418 4.635752019332691
165 14 1 0.0 2.596437488714244 8.386912908071736 3.1932622653642517
166 14 1 0.0 2.6806425601824824 8.593698167214557 3.6351992714648196
167 14 1 0.0 2.719737868472794 8.396853344141737 4.035836992390635
168 14 1 0.0 2.811357626793492 8.430983422023353 4.5178206632017375
169 15 5 8.861242189860825 2.2923540906027444 10.47153092978279 1.8400845560451253
170 15 6 -8.861242189860825 2.0933451597734476 10.387372077623313 2.2311656220466807
171 15 3 0.0 2.1217213414931884 10.387285775509639 2.7338323792705124
172 15 3 0.0 2.5385421742594723 10.463921947548583 2.7789711519264526
173 15 1 0.0 1.998221853225068 10.376661920146923 3.2802448404433626
174 15 2 0.0 2.0482053362267414 10.015050962052339 3.552704027053156
175 15 1 0.0 1.9597239500045487 10.137556840846134 3.9854229028959156
176 15 1 0.0 1.938005336966952 10.038787000667364 4.46033496124637
177 15 1 0.0 2.7495232387072464 10.227792268319723 3.178372139124379
178 15 1 0.0 2.6855117882050514 10.38758087302567 3.6426232466422825
179 15 1 0.0 2.6789705852440506 10.151859387558414 4.0236475304910275
180 15 1 0.0 2.6521970401717425 10.140271547685018 4.514581538796444
181 16 5 8.861242189860825 2.1155647425233304 11.769767565721024 1.9173899281549835
182 16 6 -8.861242189860825 2.0845219657398992 11.516622831118818 2.2842492424490146
183 16 3 0.0 2.029428010042104 11.493569385114338 2.7841615133804822
184 16 3 0.0 2.078701288122169 11.906460689787808 2.8776662345550297
185 16 1 0.0 1.9323282936132247 11.31964871920778 3.3078549491520963
186 16 2 0.0 2.254241385062465 11.224619350647288 3.6158098527008447
187 16 1 0.0 2.056645420552041 11.13737099922583 4.020069461789974
188 16 1 0.0 2.0829008896700416 11.038409798125388 4.4947124578049085
189 16 1 0.0 2.315256163942058 11.990604171351466 3.3212347735420753
190 16 1 0.0 2.08594677324695 11.9351762968675 3.756555240428364
191 16 1 0.0 2.258003388065013 11.816202840974471 4.152823771881133
192 16 1 0.0 2.198406792317383 11.738656305066739 4.63480103462648
193 17 5 8.861242189860825 3.9872304940139633 0.7731432323586889 1.9505224026187813
194 17 6 -8.861242189860825 3.9622810644352247 0.6043949492943437 2.3634790711181104
195 17 3 0.0 3.8858475039078195 0.6856244326540797 2.8544360608974424
196 17 3 0.0 3.892298928335204 1.111779303362427 2.8552257342826866
197 17 1 0.0 3.780429931161587 0.62137918021881 3.4009625932140795
198 17 2 0.0 4.0947348400828245 0.6287289484091642 3.730588513145586
199 17 1 0.0 3.887041894440209 0.6124377222473895 4.138853755160997
200 17 1 0.0 3.899725783830058 0.6226447794179552 4.624140863563585
201 17 1 0.0 4.098722108084536 1.3140777009160152 3.2750545240915137
202 17 1 0.0 3.8550734555286157 1.3322678261420633 3.7057091516909546
203 17 1 0.0 4.018343516513571 1.320593547617593 4.1228344438232085
204 17 1 0.0 3.943314049008352 1.3445591027594643 4.608286328598742
205 18 5 8.861242189860825 3.7523418800064583 2.204790265326319 1.6892861243005979
206 18 6 -8.861242189860825 3.6580822761102336 2.35941482781864 2.0977442480769755
207 18 3 0.0 3.734507725338764 2.3288231808414324 2.5944356873029886
208 18 3 0.0 3.9541100049820406 1.963788135493643 2.6076445000073756
209 18 1 0.0 3.7550961478337723 2.436772544661749 3.1438486643431958
210 18 2 0.0 3.4719057250419767 2.2628312967848587 3.455365066288849
211 18 1 0.0 3.6132098481421693 2.3847928880538825 3.873982775669945
212 18 1 0.0 3.5770216827485837 2.367342076903242 4.357877938410298
213 18 1 0.0 3.8595125564614197 1.6811128477176736 3.0210902497219907
214 18 1 0.0 4.048052507494003 1.7927424721384315 3.465106542933377
215 18 1 0.0 3.877134634247056 1.714479072898312 3.871860561811665
216 18 1 0.0 3.922471592785458 1.7317600563168125 4.361261449696096
217 19 5 8.861242189860825 3.806666207482821 3.4889856512042643 1.9562919020062932
218 19 6 -8.861242189860825 3.7620137391020343 3.369448017312018 2.384484123190284
219 19 3 0.0 3.833265392421848 3.4834515813362095 2.8696701424075983
220 19 3 0.0 4.083140789194235 3.8256490468414874 2.8236984230656823
221 19 1 0.0 3.8075478684419584 3.4966681604038192 3.429219513444972
222 19 2 0.0 4.120823416439127 3.3214252789165917 3.7096534726408197
223 19 1 0.0 4.016642843544988 3.432320785423884 4.142008496233009
224 19 1 0.0 4.117442266874272 3.4365943548657993 4.616971500590813
225 19 1 0.0 4.43774927245058 3.8722882805998817 3.1868361228711186
226 19 1 0.0 4.328503404128066 4.032326378653721 3.6424808334150223
227 19 1 0.0 4.525312750283935 3.9304365176289138 4.0319310207504
228 19 1 0.0 4.563861336265677 3.9970940828027928 4.517665595166706
229 20 5 8.861242189860825 3.5144964394882092 5.22109114278686 1.828973992518301
230 20 6 -8.861242189860825 3.6702120390994315 5.018155188756524 2.195308972735927
231 20 3 0.0 3.6547851000395686 4.969591844769343 2.6961908900847122
232 20 3 0.0 3.4128640246466326 5.3075960920165315 2.790411590640551
233 20 1 0.0 3.7112086039800243 4.78191967164617 3.2210976544424734
234 20 2 0.0 4.018019419005602 4.933784724708851 3.5215955269752763
235 20 1 0.0 3.939577835637431 4.740343130467073 3.9296513309694796
236 20 1 0.0 4.0349165208358375 4.690826819592774 4.40317779560469
237 20 1 0.0 3.5380425585387725 5.534875942299536 3.2291205919738584
238 20 1 0.0 3.4153095083792135 5.343687091782287 3.6690551060294077
239 20 1 0.0 3.6298868026880866 5.377386887506427 4.060983440632497
240 20 1 0.0 3.647752982350239 5.285505801162971 4.543793928149202
241 21 5 8.861242189860825 3.709131770002481 7.420966467206218 1.7607002833092205
242 21 6 -8.861242189860825 3.810261503604166 7.552531605060799 2.1755436978821057
243 21 3 0.0 3.855090947651368 7.433437820668926 2.662663883689069
244 21 3 0.0 3.671018731146444 7.049081977145694 2.656481412487784
245 21 1 0.0 3.9881458440632334 7.432840230288787 3.2069318370510063
246 21 2 0.0 3.7059421993439634 7.548446029409516 3.5452973850489506
247 21 1 0.0 3.909178009591998 7.465352762981997 3.9476318057299213
248 21 1 0.0 3.9026710365325297 7.448137242138831 4.4328430255008415
249 21 1 0.0 3.406979746653365 6.940117013697776 3.0786205304946046
250 21 1 0.0 3.6288756747833033 6.8100795244753956 3.5017179227070367
251 21 1 0.0 3.4934628242157304 6.8774920018925565 3.9235067664655707
252 21 1 0.0 3.5608610633684292 6.81114132859406 4.406127079725844
253 22 5 8.861242189860825 4.07015422965102 8.621336742853348 1.9443225687076424
254 22 6 -8.861242189860825 3.919231464203164 8.772045182734999 2.33693045470784
255 22 3 0.0 3.961984424107815 8.775019674178859 2.838570186761643
256 22 3 0.0 4.241282420364343 8.456515364860582 2.885451446582819
257 22 1 0.0 3.921347991114843 8.90608453573039 3.3818033319307435
258 22 2 0.0 3.650756704204299 8.695973269187222 3.682017344053518
259 22 1 0.0 3.7359939684720196 8.857583372267078 4.102373211052108
260 22 1 0.0 3.666889729056546 8.852607739151464 4.58296502311073
261 22 1 0.0 4.167315585957746 8.177601555094924 3.3056030593046932
262 22 1 0.0 4.2988083700742985 8.338584388221488 3.7549950151569207
263 22 1 0.0 4.114161131709268 8.24649180813508 4.152752812046828
264 22 1 0.0 4.118461387289643 8.290607649061364 4.642551343731848
265 23 5 8.861242189860825 3.669675963075045 10.039605812561648 1.9205037378458552
266 23 6 -8.861242189860825 3.492998325239626 10.091672275148456 2.327573465158175
267 23 3 0.0 3.564217910514556 10.203702240339377 2.8132236906575123
268 23 3 0.0 3.9903293716427743 10.202583072885105 2.8220547975547308
269 23 1 0.0 3.488641435258648 10.346783651807051 3.3496446761815113
270 23 2 0.0 3.493320877388042 10.056742730198648 3.700855736043011
271 23 1 0.0 3.467133079657156 10.292628475286428 4.092971007451627
272 23 1 0.0 3.4684370506378372 10.314493492627188 4.578036841462075
273 23 1 0.0 4.187039426868681 10.028942727353746 3.259027986800582
274 23 1 0.0 4.194510561732668 10.302703237621216 3.6715304958630197
275 23 1 0.0 4.176871768935439 10.169271798328433 4.09893175337922
276 23 1 0.0 4.190958930157471 10.278804437363345 4.578172250555998
277 24 5 8.861242189860825 4.196665683908123 11.679511076920404 1.9757921034608683
278 24 6 -8.861242189860825 4.348586650827247 11.640491781887057 2.394156993905791
279 24 3 0.0 4.24885238920995 11.540868949468004 2.8774865422218725
280 24 3 0.0 3.823008318506778 11.53742169391621 2.860306258005414
281 24 1 0.0 4.292822537187857 11.413239457897417 3.4212777766110096
282 24 2 0.0 4.2638695911086 11.712621077864286 3.763370182978756
283 24 1 0.0 4.268270005782344 11.487759339959306 4.162744827560148
284 24 1 0.0 4.237487162526647 11.479035204069442 4.647249676516227
285 24 1 0.0 3.598261652139264 11.720611669338004 3.2794980427586116
286 24 1 0.0 3.568183503640302 11.458064445435792 3.6982141936591764
287 24 1 0.0 3.558345788971 11.603220647664012 4.122029964076326
288 24 1 0.0 3.5160025511151938 11.506564635089253 4.602375638253295
289 25 5 8.861242189860825 5.337615267040691 0.6091616488017608 1.7249940024811767
290 25 6 -8.861242189860825 5.358330433233662 0.5033534101353807 2.1585919333473758
291 25 3 0.0 5.218363579997891 0.6070727120972694 2.630959026137278
292 25 3 0.0 5.038693189134958 0.9882406862805342 2.567086149312819
293 25 1 0.0 5.111597502458076 0.576291718946383 3.1801266715586327
294 25 2 0.0 5.366265046241084 0.7653419584819051 3.5070812418435926
295 25 1 0.0 5.157001812112836 0.7135998562681997 3.9115734237929543
296 25 1 0.0 5.1283245053634 0.7928452150187425 4.389764209820852
297 25 1 0.0 5.105112378970265 1.3147240813359575 2.9528172311789618
298 25 1 0.0 4.846937557666407 1.2807027980309553 3.3739434221809814
299 25 1 0.0 4.967919783681057 1.3978865574813657 3.789176102059534
300 25 1 0.0 4.854530152651606 1.4506702208863418 4.264806187012166
301 26 5 8.861242189860825 4.969591738240768 2.132058997168117 1.8330582739200671
302 26 6 -8.861242189860825 4.8281918181728845 2.1278338089968303 2.256874127235214
303 26 3 0.0 4.9242967461641545 2.229624100566744 2.7404872611686035
304 26 3 0.0 5.3406477951425915 2.315824578505403 2.7109660838996112
305 26 1 0.0 4.876269115200057 2.329214649628125 3.289765548407282
306 26 2 0.0 4.974503516594204 2.0304782271630404 3.619312804852587
307 26 1 0.0 4.9413990106889525 2.2375998673114568 4.02685052019739
308 26 1 0.0 4.987383871401991 2.23689052154202 4.510227735280666
309 26 1 0.0 5.611363156948292 2.166441883273202 3.1161689797314294
310 26 1 0.0 5.605531378018887 2.416574499608962 3.5434377703309936
311 26 1 0.0 5.658343170642038 2.2628204205527207 3.96099915343893
312 26 1 0.0 5.698625975611342 2.3507060326929987 4.443203172565717
313 27 5 8.861242189860825 5.128451181330448 4.255059103480773 1.7814425233937408
314 27 6 -8.861242189860825 5.347313730943498 4.253179003705333 2.170964431292697
315 27 3 0.0 5.3654619551168805 4.10002521292981 2.6502280771969207
316 27 3 0.0 4.971107283853972 3.9425662396417183 2.6868516116226018
317 27 1 0.0 5.53546850726984 3.970145534871744 3.1680703399399524
318 27 2 0.0 5.456143756950512 4.220896849969135 3.539992648922402
319 27 1 0.0 5.6015590344658435 3.993407266786899 3.910377797337095
320 27 1 0.0 5.651417047414937 3.9498419789824264 4.3914026271444175
321 27 1 0.0 4.7641166037847125 4.01008962048031 3.147706073408002
322 27 1 0.0 4.8940257894238055 3.7340277572271967 3.5376706948349654
323 27 1 0.0 4.899466147394714 3.844230092407438 3.9719663991143035
324 27 1 0.0 4.969055904346423 3.7148891448088723 4.441322858813326
325 28 5 8.861242189860825 5.875659676871748 5.158675507611644 1.644052276492333
326 28 6 -8.861242189860825 5.865422100982581 4.990505621489038 2.0578707736296122
327 28 3 0.0 5.701182257333345 5.0317855817513575 2.532001897469616
328 28 3 0.0 5.5415850233327 5.426620029214298 2.515128833562221
329 28 1 0.0 5.559820326333648 4.927410271124667 3.0640302488061275
330 28 2 0.0 5.801551384060173 5.05442942419388 3.4286219004372733
331 28 1 0.0 5.565966754503894 4.955301546801309 3.8090897936923245
332 28 1 0.0 5.511350503008191 4.966032910655393 4.291449146820541
333 28 1 0.0 5.597633170324555 5.690319232967555 2.947694110372087
334 28 1 0.0 5.312980461587025 5.608730558929167 3.3445254076482875
335 28 1 0.0 5.413030601988826 5.658617249323373 3.7784472882404154
336 28 1 0.0 5.273001386031147 5.647768795141343 4.249766109188222
337 29 5 8.861242189860825 5.519170286560201 7.012288305256694 1.6584601659209175
338 29 6 -8.861242189860825 5.603569262073695 7.228082617060667 2.0404828027591755
339 29 3 0.0 5.623179050486087 7.214941693961538 2.5433961713362034
340 29 3 0.0 5.431668316207944 6.840002812799098 2.6096886470672485
341 29 1 0.0 5.730693129080059 7.328825983219284 3.0813577491413233
342 29 2 0.0 5.435489394802157 7.516716019540944 3.3729858195916114
343 29 1 0.0 5.617995474664187 7.519063392237172 3.7934240340920087
344 29 1 0.0 5.5885360317724775 7.605585579095305 4.270304202534437
345 29 1 0.0 5.1460485823477935 6.826123089112858 3.031612934639046
346 29 1 0.0 5.3452502978396526 6.78683071665842 3.4832031701766075
347 29 1 0.0 5.191761215987049 6.943871755910226 3.8738003087635073
348 29 1 0.0 5.235213202391664 6.9810711906878895 4.362262618659786
349 30 5 8.861242189860825 5.452895337158958 8.13195033105301 1.6502238751126914
350 30 6 -8.861242189860825 5.549068959299275 8.03286393672376 2.0751523255543782
351 30 3 0.0 5.409139072280213 8.043534222834966 2.5586653612298464
352 30 3 0.0 5.070299577797771 8.300033238913828 2.5263192637974665
353 30 1 0.0 5.36568754471324 7.947828607585657 3.1090143119802547
354 30 2 0.0 5.526002348329859 8.221924294831842 3.435611250008671
355 30 1 0.0 5.391764979733662 8.065170568647815 3.8448677340834556
356 30 1 0.0 5.362001344267128 8.105528357160962 4.327831519017715
357 30 1 0.0 5.004652436750961 8.606581059151306 2.9282026676883826
358 30 1 0.0 4.820078976446535 8.442283546202518 3.3572690026658085
359 30 1 0.0 4.901085836856858 8.587751073591196 3.77327861550114
360 30 1 0.0 4.808354004561942 8.565517208295141 4.255744949842426
361 31 5 8.861242189860825 5.004820426206665 9.92976683143625 1.7322905053967896
362 31 6 -8.861242189860825 4.873691143377707 9.895640582537027 2.1580512098451505
363 31 3 0.0 4.928061655436098 10.046330621022094 2.635351370828621
364 31 3 0.0 5.2880876191505894 10.270966288636439 2.595723847860935
365 31 1 0.0 4.848128923498964 10.147637578941243 3.1805845560553285
366 31 2 0.0 5.044434956258182 9.917188501995645 3.5209549519366248
367 31 1 0.0 4.940963159739275 10.117946501897597 3.9197933707956665
368 31 1 0.0 4.984172519284855 10.155191850245382 4.401990817825403
369 31 1 0.0 5.593823344517571 10.24392798691123 3.002646420369588
370 31 1 0.0 5.500878041703507 10.49535555708513 3.4189447538542646
371 31 1 0.0 5.603958515870085 10.388748455355639 3.8417878129624254
372 31 1 0.0 5.610879995273027 10.506880517493391 4.319139057097653
373 32 5 8.861242189860825 5.487162802405284 11.095241902137039 1.7004776296551185
374 32 6 -8.861242189860825 5.711008549278605 11.200243248193564 2.0726327936184523
375 32 3 0.0 5.735026087161287 11.185856983054691 2.575320845201517
376 32 3 0.0 5.340879705153289 11.046840402354421 2.658826761938336
377 32 1 0.0 5.911428552817605 11.203712084823438 3.106823369260835
378 32 2 0.0 5.837360198868183 11.54816092099626 3.39555113058202
379 32 1 0.0 5.987095486975588 11.431487493110517 3.8127428446395326
380 32 1 0.0 6.043048473739505 11.522711093358673 4.286363115191631
381 32 1 0.0 5.139954995785362 11.240583825714905 3.0853055194549244
382 32 1 0.0 5.274345914138167 11.082753496645275 3.534958300065619
383 32 1 0.0 5.285573173096467 11.30900007733809 3.921576127267894
384 32 1 0.0 5.36094530127463 11.314470530165051 4.407535403030025
385 33 5 8.861242189860825 6.527606027844732 0.7356740097950214 1.9297974492722516
386 33 6 -8.861242189860825 6.4703376698453505 0.5024577450808522 2.3065761325551017
387 33 3 0.0 6.484038739298441 0.4933066457355784 2.8097735312284096
388 33 3 0.0 6.676743627893845 0.8669330376168483 2.879904576357245
389 33 1 0.0 6.41329747752197 0.3548127321779332 3.3480547564443626
390 33 2 0.0 6.728581469015182 0.1573629033237149 3.610931936413792
391 33 1 0.0 6.574392705758752 0.13467635327732003 4.041969541838084
392 33 1 0.0 6.636064521914475 0.027613345441735992 4.511546736869033
393 33 1 0.0 6.98961491277224 0.8652291466606146 3.2822726160883726
394 33 1 0.0 6.820526082228016 0.8826000005553087 3.747316888863583
395 33 1 0.0 7.000748904091338 0.7101590260590039 4.119567819989218
396 33 1 0.0 6.99007504337919 0.6511067603922497 4.607693008723228
397 34 5 8.861242189860825 6.798137001583825 2.521863156581548 1.8588763385397447
398 34 6 -8.861242189860825 6.9259841574277266 2.3311582520739336 2.2421757140556724
399 34 3 0.0 6.879346196256524 2.3048209845322734 2.7427856748746735
400 34 3 0.0 6.641774126907164 2.6526302433159916 2.8078890515845574
401 34 1 0.0 6.8990816382278 2.138772663587007 3.2775473368061205
402 34 2 0.0 7.191538948778101 2.295723793341173 3.5895247499784646
403 34 1 0.0 7.08351360546701 2.1222555035500243 3.999794842962242
404 34 1 0.0 7.1490062300085215 2.0909671594887858 4.4798994131388366
405 34 1 0.0 6.746854281360792 2.8955166831012606 3.2434986497930423
406 34 1 0.0 6.592794478818926 2.7268077362315832 3.6827728503873334
407 34 1 0.0 6.784460981589865 2.7720578381890215 4.085269174492183
408 34 1 0.0 6.770911607721098 2.7008275077372588 4.571694868458886
409 35 5 8.861242189860825 6.81041547726769 3.4875537516317854 1.8949021503261165
410 35 6 -8.861242189860825 6.5691954406016455 3.5436776979990867 2.266782055250443
411 35 3 0.0 6.560182821266696 3.656479393749893 2.75736704695263
412 35 3 0.0 6.978806914383281 3.6492532821263195 2.8370656684135196
413 35 1 0.0 6.398445099856577 3.8026335908061593 3.273517633299413
414 35 2 0.0 6.340259352742165 3.5138665851969777 3.620969611649481
415 35 1 0.0 6.252626882584319 3.75156524625499 4.002941035008251
416 35 1 0.0 6.173443375132407 3.7752172415315446 4.48141694653874
417 35 1 0.0 7.097389323425899 3.474426620401387 3.3009247355434876
418 35 1 0.0 7.0401077656017135 3.749586845949716 3.7085576932766613
419 35 1 0.0 6.94955003266291 3.6180175820908675 4.127217145268541
420 35 1 0.0 6.885240022422451 3.729121575582805 4.601967002006285
421 36 5 8.861242189860825 6.763887238455433 5.380441758852545 1.8919265381902286
422 36 6 -8.861242189860825 6.556487447813188 5.389413049796452 2.2875734892866406
423 36 3 0.0 6.593592991309745 5.387926653987409 2.789669150714115