Lipid soup setup

2816 atoms
1408 bonds
1024 angles
0 dihedrals
0 impropers

6 atom types
2 bond types
3 angle types
0 dihedral types
0 improper types

0 10.373608390765556 xlo xhi
0 10.373608390765556 ylo yhi
0 8.722715294117645 zlo zhi

Masses

1 1
2 1
3 1
4 1
5 1
6 1

Atoms

1 1 5 8.861242189860825 0.5408848083618862 0.66550766871205 1.1551382329914588
2 1 6 -8.861242189860825 0.677021636326583 0.4804961261382251 1.5383733570572178
3 1 3 0.0 0.6321014463879296 0.45248614150250577 2.039049601002895
4 1 3 0.0 0.38029672788416824 0.7901106148967143 2.1042747264851096
5 1 1 0.0 0.6593667112118993 0.2876738187106427 2.573862719035967
6 1 2 0.0 0.9453792850435211 0.4568491954150282 2.8854254598800413
7 1 1 0.0 0.8451610714676533 0.2792293394551675 3.295900511489664
8 1 1 0.0 0.9124566523147202 0.2509417511061481 3.775941926152747
9 1 1 0.0 0.475651958683785 1.0373887145403975 2.5396507765139087
10 1 1 0.0 0.32927428903871886 0.8626174690225861 2.9791818270556205
11 1 1 0.0 0.5193500005133579 0.9160282645578548 3.3814322736149944
12 1 1 0.0 0.50934667168401 0.8445380806046574 3.867905693515982
13 2 5 8.861242189860825 0.6234443339941919 2.122671605818347 1.4903021307063435
14 2 6 -8.861242189860825 0.4728996956395155 1.9643844873866323 1.880062527787393
15 2 3 0.0 0.45588744417196236 2.008494003619408 2.381305001878211
16 2 3 0.0 0.7562367967455261 2.3062322070340855 2.4341486100601584
17 2 1 0.0 0.3149938535878805 1.9619412820102131 2.921595116421619
18 2 2 0.0 0.5337152681776104 1.705170495668112 3.2277397685654345
19 2 1 0.0 0.35775137361357456 1.7820775916123344 3.643917949109232
20 2 1 0.0 0.35574158392612326 1.7149263310513494 4.124808073356305
21 2 1 0.0 1.0292927663859321 2.250183193763307 2.8608690444173948
22 2 1 0.0 0.8505648052389215 2.373395086389797 3.30587926928925
23 2 1 0.0 0.9442028068522557 2.195773058951995 3.706465403537881
24 2 1 0.0 0.8886670786822725 2.1990335568960826 4.195108886364858
25 3 5 8.861242189860825 0.4029216147114083 3.062485105416058 1.2436386899287373
26 3 6 -8.861242189860825 0.5412823679774299 3.2232754276240208 1.6368745496509298
27 3 3 0.0 0.6249460236959593 3.1412990909280594 2.1265268312638015
28 3 3 0.0 0.433791970144091 2.7624414426770354 2.1662411669883053
29 3 1 0.0 0.8035777536990572 3.1796153288403852 2.6562004464067246
30 3 2 0.0 0.5532731004552677 3.3283243454240026 3.006526081932261
31 3 1 0.0 0.7882452684386624 3.271601269975485 3.39595238374341
32 3 1 0.0 0.822526753292659 3.2923216852253367 3.8798574228119866
33 3 1 0.0 0.20444021561486964 2.6933804851715313 2.6161519808011207
34 3 1 0.0 0.45887460964963644 2.5910087374540534 3.02839234663433
35 3 1 0.0 0.3609623667060396 2.6944291361892185 3.45325035201581
36 3 1 0.0 0.4677238627167897 2.664094298134664 3.932363159013539
37 4 5 8.861242189860825 0.8124075732600022 4.686263907781409 1.1752211664141097
38 4 6 -8.861242189860825 0.9904105354482108 4.675616230487305 1.5848957196292164
39 4 3 0.0 0.9593527036650475 4.512638125857748 2.0602404707848962
40 4 3 0.0 0.5630669862485187 4.355926437297354 2.0532194217277544
41 4 1 0.0 1.0754654507137213 4.371578277445412 2.5899116109925977
42 4 2 0.0 0.9590352400914992 4.614972152722943 2.9569242395041826
43 4 1 0.0 1.0655630519702672 4.379426723286819 3.335411290175057
44 4 1 0.0 1.0660459469688663 4.325860010362964 3.8180074119237046
45 4 1 0.0 0.3102748738796236 4.414788351201629 2.4918796621855788
46 4 1 0.0 0.39930317830152057 4.130338619626383 2.887254504631833
47 4 1 0.0 0.36061114289661145 4.2316255493835255 3.322031223403795
48 4 1 0.0 0.38177502814502356 4.09246689176 3.7932575588617174
49 5 5 8.861242189860825 0.4475000818044968 5.603361075564125 1.5175302492964187
50 5 6 -8.861242189860825 0.4139048479992966 5.77769265470821 1.9275443074825214
51 5 3 0.0 0.5830988678662823 5.79076324125157 2.401550243482939
52 5 3 0.0 0.8391231788662505 5.450150023837022 2.392362937613033
53 5 1 0.0 0.6926104294602012 5.939923015809586 2.930407641238979
54 5 2 0.0 0.4917068020052864 5.763057825648149 3.298987726077738
55 5 1 0.0 0.6936508179328008 5.928053470576417 3.6759191829014357
56 5 1 0.0 0.7490488204934957 5.942552445699024 4.158090815912505
57 5 1 0.0 0.852849745934759 5.190653888022879 2.8308429490125957
58 5 1 0.0 1.106720528232795 5.351724516599862 3.2242445673697997
59 5 1 0.0 1.0227947949329326 5.287442662485207 3.6596882783717826
60 5 1 0.0 1.1551549444476041 5.344560907396219 4.129885681786808
61 6 5 8.861242189860825 0.9668501561322759 6.8396108766723565 1.4309726727450731
62 6 6 -8.861242189860825 0.94905517264096 7.079596933226119 1.8074320973234081
63 6 3 0.0 0.8853586900320709 7.087180141487299 2.3067960297521455
64 6 3 0.0 0.7494110859255472 6.687401433713058 2.3646359125122243
65 6 1 0.0 0.8803875352833608 7.236119856747351 2.846910662463523
66 6 2 0.0 0.5134664747720343 7.380347847372765 3.0750817912868915
67 6 1 0.0 0.6194862230509547 7.428346687220772 3.5184080773399318
68 6 1 0.0 0.4961753851450993 7.524736756749011 3.9780514547524417
69 6 1 0.0 0.4028403537232575 6.6390676722642095 2.735235370995225
70 6 1 0.0 0.5266451848843692 6.650000400894948 3.214517953660946
71 6 1 0.0 0.28580550785341086 6.791573022679358 3.5648611477695633
72 6 1 0.0 0.23948071417610306 6.852321049089057 4.050691356831921
73 7 5 8.861242189860825 0.30615770659505226 8.590919020976953 1.185326385170535
74 7 6 -8.861242189860825 0.15889940990532017 8.718865533569284 1.587291994524162
75 7 3 0.0 0.2468372639362768 8.760550065631406 2.0812640762961596
76 7 3 0.0 0.6032929773046385 8.528357291199582 2.107265195471112
77 7 1 0.0 0.22494400257497668 8.906451111836619 2.6217870984269633
78 7 2 0.0 0.049033414481981674 8.650357472102563 2.95490322628581
79 7 1 0.0 0.12825866081082044 8.851521341763778 3.359055090619655
80 7 1 0.0 0.10890502204482044 8.855402258847743 3.8442138458709483
81 7 1 0.0 0.6456613196467014 8.26348111085859 2.540666760071508
82 7 1 0.0 0.7722173862167181 8.47762706746036 2.9687835970521457
83 7 1 0.0 0.6570080131390179 8.362993150662874 3.386363261791973
84 7 1 0.0 0.6960717799282401 8.43373482785958 3.8714786485724035
85 8 5 8.861242189860825 1.1291283380149952 9.330269318649018 1.40036485848524
86 8 6 -8.861242189860825 1.228253056781213 9.269579987439121 1.8317843322440712
87 8 3 0.0 1.0947227937165254 9.329578745586431 2.3134988761615505
88 8 3 0.0 0.7617316184888812 9.590240294754599 2.2603702370352816
89 8 1 0.0 1.0559347840230342 9.287645640777802 2.8708754747511875
90 8 2 0.0 1.2268598139030198 9.587402915051786 3.168238977278798
91 8 1 0.0 1.0940815276520721 9.473596976953297 3.5919138605457284
92 8 1 0.0 1.0713801028763001 9.560334016845479 4.069124478482687
93 8 1 0.0 0.7085018687150586 9.935085605945812 2.6319071647172696
94 8 1 0.0 0.5254751761921926 9.81691035980868 3.0765359940181116
95 8 1 0.0 0.6151728937108867 9.999127409242323 3.4759582984743727
96 8 1 0.0 0.5280236062824442 10.025101695619536 3.9592776953615676
97 9 5 8.861242189860825 1.9987019572077376 1.1264487591026602 1.5481290266963923
98 9 6 -8.861242189860825 1.810603254930092 1.0510714415162974 1.9463360147396505
99 9 3 0.0 1.8664967738652822 1.0147471163844826 2.4453706246613764
100 9 3 0.0 2.2921062817826603 1.0200697494096613 2.467243773443668
101 9 1 0.0 1.773530123422146 0.9898155341929282 2.9973372774086564
102 9 2 0.0 1.7782346566408245 0.6084475357090622 3.2463978303967513
103 9 1 0.0 1.735394928111751 0.7161358239778323 3.6898504905384626
104 9 1 0.0 1.7241302419521825 0.5924592406945058 4.159260601465966
105 9 1 0.0 2.483117503675906 0.7282902536873355 2.8389571341529565
106 9 1 0.0 2.472280459834495 0.866759542391867 3.3142126121722093
107 9 1 0.0 2.448138176626341 0.6116662178398211 3.6818149201899883
108 9 1 0.0 2.447173942269403 0.5736592696952723 4.172143221845456
109 10 5 8.861242189860825 2.0758587788835374 2.3047895016199895 1.5692272778092882
110 10 6 -8.861242189860825 1.9924216826081136 2.4762656331071566 1.9732889741216888
111 10 3 0.0 1.9441610767754767 2.3993937825435507 2.4685068216096027
112 10 3 0.0 1.9463191856110584 1.9732112510186015 2.4722499057504503
113 10 1 0.0 1.906988184042023 2.468901787748891 3.023230519398356
114 10 2 0.0 1.5199128015951975 2.456330020079806 3.2630417804276286
115 10 1 0.0 1.6175307221112434 2.479430014121336 3.7102770690921822
116 10 1 0.0 1.4830505437206496 2.4715486228551833 4.176776380924071
117 10 1 0.0 1.6447937240081654 1.7686266129008201 2.8286470232953285
118 10 1 0.0 1.7722449869768253 1.7581745225446055 3.3069836037444373
119 10 1 0.0 1.508832580928651 1.7684521734455805 3.669330378480167
120 10 1 0.0 1.45944681947474 1.7487684529160807 4.15824846872763
121 11 5 8.861242189860825 1.9361695100105012 2.903301462883585 1.2544752037902194
122 11 6 -8.861242189860825 1.99889626862075 2.7379150786514357 1.6647731014163232
123 11 3 0.0 1.9818166340509595 2.811712814041877 2.1625092406398823
124 11 3 0.0 1.918667726264072 3.2331870693562177 2.167187471308694
125 11 1 0.0 1.9682049238918853 2.7379618928780536 2.7177633181613894
126 11 2 0.0 2.3212866580882405 2.8006057412110126 2.9986616613356825
127 11 1 0.0 2.18009469683247 2.7557503708093014 3.4324070905684723
128 11 1 0.0 2.2607688931685472 2.7739506540570247 3.9108724146862315
129 11 1 0.0 2.1476403833666557 3.471679162861577 2.5551106946116207
130 11 1 0.0 1.9689551853789706 3.4552542839240536 3.0165874309622818
131 11 1 0.0 2.190346483958442 3.475583454075259 3.4056369505401562
132 11 1 0.0 2.183190538981706 3.4930492667558224 3.8970746771122924
133 12 5 8.861242189860825 1.52141467629235 4.519261331553335 1.3862756354300074
134 12 6 -8.861242189860825 1.4421693099965625 4.605754381674659 1.8174029847514
135 12 3 0.0 1.6181674590122093 4.625455625403663 2.288694398309472
136 12 3 0.0 1.9926882068762048 4.430613492943278 2.230205329866477
137 12 1 0.0 1.686159770872183 4.7342129122397605 2.8341120967005438
138 12 2 0.0 1.6007603407485023 4.440830227216459 3.1719410170407065
139 12 1 0.0 1.736674545263206 4.623525781320438 3.5697247963470504
140 12 1 0.0 1.8095520753063539 4.595043840967741 4.048939035843789
141 12 1 0.0 2.140519329432859 4.145057054707072 2.6256732341626536
142 12 1 0.0 2.3260738743348948 4.3440866795863124 3.039334537776486
143 12 1 0.0 2.303189816168123 4.192177280466517 3.4602701210554465
144 12 1 0.0 2.4270846627926055 4.236165760304636 3.9341713574759902
145 13 5 8.861242189860825 1.7548471332307884 5.8571534342773415 1.3474291037271524
146 13 6 -8.861242189860825 1.95283091015824 5.704856049102647 1.717887735255728
147 13 3 0.0 1.9298561682513908 5.631568173059264 2.2154619833979856
148 13 3 0.0 1.580498625677763 5.859733486266507 2.3022958223411196
149 13 1 0.0 2.021536775354489 5.4519226722454155 2.738198750756831
150 13 2 0.0 2.240076818366055 5.687397088185302 3.061133559957393
151 13 1 0.0 2.2135792274351394 5.4606735445781895 3.4585962424906764
152 13 1 0.0 2.2959435906302708 5.426247120846098 3.935879780518504
153 13 1 0.0 1.5957064915558703 6.096461767855292 2.7534275382006603
154 13 1 0.0 1.5253649162603464 5.855013365633448 3.1799409455753067
155 13 1 0.0 1.6943107923990177 5.943649074575033 3.585388738719721
156 13 1 0.0 1.7185557852322773 5.842185051022176 4.065997242084438
157 14 5 8.861242189860825 1.520155789910668 7.277568845651703 1.5025279372016467
158 14 6 -8.861242189860825 1.4094788343139846 7.272158841262563 1.9353708769429492
159 14 3 0.0 1.5585968257728187 7.3059346277607915 2.415060469100918
160 14 3 0.0 1.9805164343609474 7.28977676742289 2.356983057590185
161 14 1 0.0 1.5721061504776448 7.367299282074645 2.971822038336069
162 14 2 0.0 1.6131713501903915 7.026766999910651 3.271565689030902
163 14 1 0.0 1.6590027419532984 7.200359139599147 3.6932854112693896
164 14 1 0.0 1.7340190868939993 7.147423603760789 4.170086228891513
165 14 1 0.0 2.2304234185010725 7.044861317290106 2.727596474923074
166 14 1 0.0 2.314628489969311 7.251646576432928 3.1695334810236417
167 14 1 0.0 2.3537237982596224 7.054801753360108 3.570171201949458
168 14 1 0.0 2.44534355658032 7.088931831241723 4.052154872760559
169 15 5 8.861242189860825 1.9263400203895726 8.885469958859046 1.3744187656039475
170 15 6 -8.861242189860825 1.7273310895602756 8.801311106699568 1.7654998316055028
171 15 3 0.0 1.7557072712800166 8.801224804585894 2.2681665888293345
172 15 3 0.0 2.1725281040463003 8.877860976624838 2.3133053614852748
173 15 1 0.0 1.6322077830118964 8.790600949223178 2.814579050002185
174 15 2 0.0 1.6821912660135696 8.428989991128594 3.087038236611978
175 15 1 0.0 1.5937098797913771 8.55149586992239 3.5197571124547378
176 15 1 0.0 1.5719912667537803 8.45272602974362 3.9946691708051922
177 15 1 0.0 2.383509168494075 8.641731297395978 2.7127063486832013
178 15 1 0.0 2.3194977179918794 8.801519902101925 3.1769574562011047
179 15 1 0.0 2.312956515030879 8.565798416634669 3.5579817400498497
180 15 1 0.0 2.2861829699585705 8.554210576761273 4.048915748355266
181 16 5 8.861242189860825 1.7495506723101588 9.939697214655164 1.4517241377138057
182 16 6 -8.861242189860825 1.7185078955267277 9.686552480052958 1.8185834520078368
183 16 3 0.0 1.663413939828932 9.663499034048478 2.3184957229393044
184 16 3 0.0 1.7126872179089971 10.076390338721948 2.412000444113852
185 16 1 0.0 1.566314223400053 9.48957836814192 2.8421891587109185
186 16 2 0.0 1.8882273148492932 9.394548999581428 3.150144062259667
187 16 1 0.0 1.6906313503388695 9.30730064815997 3.554403671348796
188 16 1 0.0 1.71688681945687 9.208339447059528 4.029046667363731
189 16 1 0.0 1.9492420937288863 10.160533820285606 2.8555689831008975
190 16 1 0.0 1.719932703033778 10.10510594580164 3.290889449987186
191 16 1 0.0 1.8919893178518414 9.986132489908611 3.687157981439955
192 16 1 0.0 1.8323927221042116 9.908585954000879 4.169135244185302
193 17 5 8.861242189860825 3.377207043658677 0.6511385422876316 1.4848566121776035
194 17 6 -8.861242189860825 3.3522576140799383 0.4823902592232863 1.8978132806769323
195 17 3 0.0 3.275824053552533 0.5636197425830224 2.3887702704562646
196 17 3 0.0 3.2822754779799177 0.9897746132913696 2.3895599438415087
197 17 1 0.0 3.170406480806301 0.49937449014775265 2.9352968027729016
198 17 2 0.0 3.484711389727538 0.5067242583381069 3.264922722704408
199 17 1 0.0 3.2770184440849226 0.49043303217633216 3.673187964719819
200 17 1 0.0 3.2897023334747715 0.5006400893468979 4.158475073122407
201 17 1 0.0 3.4886986577292496 1.1920730108449578 2.809388733650336
202 17 1 0.0 3.2450500051733293 1.2102631360710059 3.2400433612497768
203 17 1 0.0 3.408320066158285 1.1985888575465355 3.6571686533820307
204 17 1 0.0 3.3332905986530657 1.222554412688407 4.142620538157564
205 18 5 8.861242189860825 3.1423184296511715 1.8387761951131476 1.22362033385942
206 18 6 -8.861242189860825 3.048058825754947 1.9934007576054684 1.6320784576357976
207 18 3 0.0 3.124484274983477 1.9628091106282608 2.1287698968618107
208 18 3 0.0 3.3440865546267537 1.5977740652804715 2.1419787095661977
209 18 1 0.0 3.1450726974784855 2.0707584744485774 2.678182873902018
210 18 2 0.0 2.86188227468669 1.8968172265716874 2.9896992758476713
211 18 1 0.0 3.0031863977868825 2.018778817840711 3.408316985228767
212 18 1 0.0 2.966998232393297 2.0013280066900703 3.8922121479691203
213 18 1 0.0 3.249489106106133 1.315098777504502 2.555424459280813
214 18 1 0.0 3.4380290571387158 1.42672840192526 2.999440752492199
215 18 1 0.0 3.2671111838917692 1.3484650026851404 3.406194771370487
216 18 1 0.0 3.312448142430171 1.365745986103641 3.895595659254918
217 19 5 8.861242189860825 3.196642757127534 2.8789622008489775 1.4906261115651154
218 19 6 -8.861242189860825 3.1519902887467475 2.759424566956731 1.918818332749106
219 19 3 0.0 3.2232419420665606 2.8734281309809226 2.4040043519664205
220 19 3 0.0 3.473117338838948 3.2156255964862006 2.3580326326245045
221 19 1 0.0 3.1975244180866715 2.8866447100485324 2.9635537230037943
222 19 2 0.0 3.5107999660838405 2.711401828561305 3.243987682199642
223 19 1 0.0 3.406619393189701 2.822297335068597 3.676342705791831
224 19 1 0.0 3.507418816518985 2.8265709045105125 4.151305710149635
225 19 1 0.0 3.8277258220952928 3.262264830244595 2.7211703324299408
226 19 1 0.0 3.718479953772779 3.4223029282984347 3.1768150429738444
227 19 1 0.0 3.9152892999286486 3.320413067273627 3.566265230309222
228 19 1 0.0 3.9538378859103904 3.387070632447506 4.051999804725529
229 20 5 8.861242189860825 2.9044729891329224 4.367058312289459 1.3633082020771232
230 20 6 -8.861242189860825 3.0601885887441447 4.164122358259124 1.7296431822947491
231 20 3 0.0 3.0447616496842818 4.115559014271942 2.2305250996435344
232 20 3 0.0 2.802840574291346 4.453563261519131 2.324745800199373
233 20 1 0.0 3.1011851536247375 3.9278868411487693 2.7554318640012956
234 20 2 0.0 3.407995968650316 4.079751894211451 3.0559297365340985
235 20 1 0.0 3.3295543852821443 3.8863102999696717 3.4639855405283018
236 20 1 0.0 3.424893070480551 3.8367939890953724 3.937512005163512
237 20 1 0.0 2.9280191081834857 4.680843111802135 2.7634548015326805
238 20 1 0.0 2.8052860580239267 4.489654261284886 3.20338931558823
239 20 1 0.0 3.0198633523328 4.523354057009026 3.5953176501913187
240 20 1 0.0 3.037729531994952 4.43147297066557 4.078128137708024
241 21 5 8.861242189860825 3.099108319647194 6.322924256566702 1.2950344928680426
242 21 6 -8.861242189860825 3.2002380532488788 6.454489394421283 1.7098779074409278
243 21 3 0.0 3.245067497296081 6.33539561002941 2.196998093247891
244 21 3 0.0 3.0609952807911567 5.951039766506178 2.190815622046606
245 21 1 0.0 3.378122393707946 6.334798019649271 2.7412660466098284
246 21 2 0.0 3.095918748988676 6.45040381877 3.079631594607773
247 21 1 0.0 3.299154559236711 6.367310552342481 3.4819660152887435
248 21 1 0.0 3.2926475861772424 6.350095031499315 3.9671772350596637
249 21 1 0.0 2.796956296298078 5.84207480305826 2.6129547400534268
250 21 1 0.0 3.018852224428016 5.7120373138358795 3.036052132265859
251 21 1 0.0 2.883439373860443 5.7794497912530405 3.457840976024393
252 21 1 0.0 2.950837613013142 5.713099117954544 3.9404612892846664
253 22 5 8.861242189860825 3.4601307792957328 7.2792851520717194 1.4786567782664646
254 22 6 -8.861242189860825 3.309208013847877 7.429993591953369 1.8712646642666622
255 22 3 0.0 3.351960973752528 7.43296808339723 2.372904396320465
256 22 3 0.0 3.631258970009057 7.114463774078953 2.419785656141641
257 22 1 0.0 3.311324540759556 7.564032944948759 2.9161375414895656
258 22 2 0.0 3.0407332538490124 7.353921678405594 3.2163515536123404
259 22 1 0.0 3.1259705181167323 7.515531781485449 3.63670742061093
260 22 1 0.0 3.0568662787012593 7.510556148369835 4.117299232669552
261 22 1 0.0 3.5572921356024594 6.8355499643132935 2.8399372688635154
262 22 1 0.0 3.6887849197190112 6.996532797439858 3.289329224715743
263 22 1 0.0 3.5041376813539804 6.90444021735345 3.6870870216056497
264 22 1 0.0 3.5084379369343566 6.948556058279734 4.176885553290671
265 23 5 8.861242189860825 3.059652512719758 8.453544841637903 1.4548379474046773
266 23 6 -8.861242189860825 2.882974874884339 8.505611304224711 1.8619076747169971
267 23 3 0.0 2.954194460159269 8.617641269415632 2.3475579002163345
268 23 3 0.0 3.3803059212874875 8.61652210196136 2.356389007113553
269 23 1 0.0 2.8786179849033613 8.760722680883305 2.8839788857403335
270 23 2 0.0 2.883297427032755 8.470681759274903 3.2351899456018334
271 23 1 0.0 2.8571096293018687 8.706567504362683 3.627305217010449
272 23 1 0.0 2.8584136002825504 8.728432521703443 4.112371051020897
273 23 1 0.0 3.5770159765133944 8.442881756430001 2.793362196359404
274 23 1 0.0 3.5844871113773813 8.716642266697471 3.205864705421842
275 23 1 0.0 3.566848318580152 8.583210827404688 3.633265962938042
276 23 1 0.0 3.580935479802185 8.6927434664396 4.112506460114819
277 24 5 8.861242189860825 3.586642233552836 9.849440725854544 1.5101263130196905
278 24 6 -8.861242189860825 3.7385632004719596 9.810421430821197 1.9284912034646136
279 24 3 0.0 3.6388289388546626 9.710798598402144 2.4118207517806947
280 24 3 0.0 3.2129848681514908 9.70735134285035 2.394640467564236
281 24 1 0.0 3.6827990868325697 9.583169106831557 2.955611986169832
282 24 2 0.0 3.6538461407533123 9.882550726798426 3.297704392537578
283 24 1 0.0 3.658246555427057 9.657688988893446 3.69707903711897
284 24 1 0.0 3.62746371217136 9.648964853003582 4.181583886075049
285 24 1 0.0 2.9882382017839766 9.890541318272144 2.8138322523174337
286 24 1 0.0 2.9581600532850145 9.627994094369932 3.2325484032179985
287 24 1 0.0 2.948322338615713 9.773150296598152 3.6563641736351475
288 24 1 0.0 2.9059791007599065 9.676494284023393 4.136709847812117
289 25 5 8.861242189860825 4.483582436543291 0.48715695873070336 1.259328212039999
290 25 6 -8.861242189860825 4.504297602736261 0.38134872006432335 1.6929261429061981
291 25 3 0.0 4.36433074950049 0.48506802202621196 2.1652932356961
292 25 3 0.0 4.184660358637557 0.8662359962094768 2.1014203588716414
293 25 1 0.0 4.257564671960675 0.45428702887532557 2.714460881117455
294 25 2 0.0 4.512232215743683 0.6433372684108477 3.0414154514024148
295 25 1 0.0 4.302968981615435 0.5915951661971423 3.4459076333517764
296 25 1 0.0 4.274291674865999 0.6708405249476851 3.924098419379674
297 25 1 0.0 4.251079548472864 1.1927193912649001 2.487151440737784
298 25 1 0.0 3.9929047271690057 1.1586981079598981 2.9082776317398036
299 25 1 0.0 4.113886953183656 1.2758818674103085 3.323510311618356
300 25 1 0.0 4.000497322154205 1.3286655308152844 3.7991403965709876
301 26 5 8.861242189860825 4.115558907743368 1.7660449269549459 1.3673924834788893
302 26 6 -8.861242189860825 3.9741589876754833 1.7618197387836587 1.7912083367940366
303 26 3 0.0 4.070263915666754 1.863610030353573 2.2748214707274257
304 26 3 0.0 4.486614964645191 1.9498105082922317 2.2453002934584334
305 26 1 0.0 4.0222362847026565 1.9632005794149536 2.824099757966104
306 26 2 0.0 4.1204706860968034 1.664464156949869 3.1536470144114093
307 26 1 0.0 4.087366180191552 1.8715857970982854 3.5611847297562123
308 26 1 0.0 4.13335104090459 1.8708764513288487 4.044561944839488
309 26 1 0.0 4.757330326450891 1.8004278130600309 2.6505031892902515
310 26 1 0.0 4.751498547521487 2.0505604293957904 3.0777719798898158
311 26 1 0.0 4.804310340144637 1.8968063503395496 3.4953333629977523
312 26 1 0.0 4.844593145113941 1.9846919624798274 3.9775373821245386
313 27 5 8.861242189860825 4.274418350833047 3.6450356531254866 1.315776732952563
314 27 6 -8.861242189860825 4.493280900446098 3.6431555533500464 1.705298640851519
315 27 3 0.0 4.51142912461948 3.490001762574523 2.184562286755743
316 27 3 0.0 4.1170744533565715 3.3325427892864314 2.221185821181424
317 27 1 0.0 4.681435676772439 3.360122084516457 2.7024045494987745
318 27 2 0.0 4.602110926453111 3.6108733996138476 3.074326858481224
319 27 1 0.0 4.747526203968443 3.3833838164316123 3.444712006895917
320 27 1 0.0 4.7973842169175365 3.3398185286271396 3.9257368367032397
321 27 1 0.0 3.9100837732873117 3.400066170125023 2.682040282966824
322 27 1 0.0 4.039992958926405 3.12400430687191 3.0720049043937876
323 27 1 0.0 4.045433316897313 3.2342066420521514 3.5063006086731257
324 27 1 0.0 4.115023073849022 3.1048656944535855 3.975657068372148
325 28 5 8.861242189860825 5.021626846374347 4.304642677114243 1.1783864860511553
326 28 6 -8.861242189860825 5.01138927048518 4.136472790991637 1.5922049831884346
327 28 3 0.0 4.847149426835944 4.177752751253957 2.0663361070284383
328 28 3 0.0 4.687552192835299 4.572587198716898 2.049463043121043
329 28 1 0.0 4.705787495836248 4.073377440627266 2.5983644583649497
330 28 2 0.0 4.947518553562772 4.200396593696479 2.9629561099960955
331 28 1 0.0 4.711933924006494 4.101268716303908 3.3434240032511466
332 28 1 0.0 4.65731767251079 4.112000080157992 3.825783356379363
333 28 1 0.0 4.743600339827155 4.836286402470154 2.482028319930909
334 28 1 0.0 4.458947631089624 4.754697728431767 2.8788596172071097
335 28 1 0.0 4.558997771491425 4.804584418825972 3.3127814977992376
336 28 1 0.0 4.418968555533747 4.793735964643942 3.7841003187470443
337 29 5 8.861242189860825 4.6651374560628005 5.914246094617178 1.1927943754797397
338 29 6 -8.861242189860825 4.749536431576295 6.130040406421151 1.5748170123179979
339 29 3 0.0 4.769146219988686 6.116899483322022 2.0777303808950256
340 29 3 0.0 4.577635485710544 5.741960602159582 2.1440228566260706
341 29 1 0.0 4.876660298582658 6.230783772579768 2.6156919587001455
342 29 2 0.0 4.581456564304756 6.418673808901428 2.9073200291504335
343 29 1 0.0 4.763962644166786 6.421021181597656 3.327758243650831
344 29 1 0.0 4.734503201275077 6.507543368455789 3.804638412093259
345 29 1 0.0 4.292015751850393 5.728080878473342 2.5659471441978683
346 29 1 0.0 4.491217467342252 5.688788506018904 3.0175373797354297
347 29 1 0.0 4.3377283854896485 5.84582954527071 3.4081345183223295
348 29 1 0.0 4.3811803718942635 5.8830289800483735 3.896596828218608
349 30 5 8.861242189860825 4.598862506661558 6.789898740271379 1.1845580846715136
350 30 6 -8.861242189860825 4.695036128801874 6.6908123459421285 1.6094865351132004
351 30 3 0.0 4.555106241782812 6.7014826320533345 2.0929995707886686
352 30 3 0.0 4.21626674730037 6.957981648132196 2.0606534733562887
353 30 1 0.0 4.511654714215839 6.6057770168040255 2.643348521539077
354 30 2 0.0 4.6719695178324585 6.879872704050212 2.969945459567493
355 30 1 0.0 4.537732149236262 6.723118977866185 3.3792019436422778
356 30 1 0.0 4.507968513769727 6.763476766379331 3.862165728576537
357 30 1 0.0 4.15061960625356 7.264529468369676 2.4625368772472047
358 30 1 0.0 3.9660461459491336 7.1002319554208855 2.8916032122246307
359 30 1 0.0 4.047053006359457 7.245699482809565 3.3076128250599623
360 30 1 0.0 3.9543211740645416 7.22346561751351 3.790079159401248
361 31 5 8.861242189860825 4.150787595709264 8.343705860512506 1.2666247149556118
362 31 6 -8.861242189860825 4.019658312880306 8.309579611613282 1.692385419403973
363 31 3 0.0 4.074028824938697 8.460269650098349 2.1696855803874433
364 31 3 0.0 4.434054788653189 8.684905317712694 2.130058057419757
365 31 1 0.0 3.994096093001564 8.561576608017498 2.7149187656141507
366 31 2 0.0 4.190402125760781 8.3311275310719 3.055289161495447
367 31 1 0.0 4.086930329241874 8.531885530973852 3.4541275803544886
368 31 1 0.0 4.130139688787454 8.569130879321637 3.9363250273842247
369 31 1 0.0 4.739790514020171 8.657867015987485 2.53698062992841
370 31 1 0.0 4.646845211206106 8.909294586161385 2.9532789634130867
371 31 1 0.0 4.749925685372684 8.802687484431894 3.3761220225212476
372 31 1 0.0 4.7568471647756265 8.920819546569646 3.853473266656475
373 32 5 8.861242189860825 4.633129971907883 9.265171551071179 1.2348118392139407
374 32 6 -8.861242189860825 4.856975718781205 9.370172897127704 1.6069670031772747
375 32 3 0.0 4.880993256663886 9.355786631988831 2.109655054760339
376 32 3 0.0 4.486846874655888 9.216770051288561 2.193160971497158
377 32 1 0.0 5.057395722320204 9.373641733757578 2.6411575788196573
378 32 2 0.0 4.983327368370782 9.7180905699304 2.9298853401408422
379 32 1 0.0 5.133062656478187 9.601417142044657 3.3470770541983548
380 32 1 0.0 5.189015643242104 9.692640742292813 3.820697324750453
381 32 1 0.0 4.285922165287961 9.410513474649045 2.6196397290137465
382 32 1 0.0 4.4203130836407665 9.252683145579415 3.0692925096244412
383 32 1 0.0 4.4315403425990665 9.47892972627223 3.455910336826716
384 32 1 0.0 4.5069124707772295 9.484400179099191 3.9418696125888473
385 33 5 8.861242189860825 5.429563817205216 0.613669319723964 1.4641316588310738
386 33 6 -8.861242189860825 5.3722954592058345 0.38045305500979476 1.8409103421139241
387 33 3 0.0 5.385996528658925 0.37130195566452107 2.3441077407872317
388 33 3 0.0 5.5787014172543286 0.7449283475457908 2.414238785916067
389 33 1 0.0 5.315255266882454 0.23280804210687586 2.8823889660031847
390 33 2 0.0 5.630539258375666 0.03535821325265753 3.1452661459726143
391 33 1 0.0 5.476350495119236 0.012671663206262673 3.5763037513969063
392 33 1 0.0 5.538022311274959 10.279217046136235 4.045880946427856
393 33 1 0.0 5.8915727021327235 0.7432244565895572 2.816606825647195
394 33 1 0.0 5.7224838715885 0.7605953104842513 3.281651098422405
395 33 1 0.0 5.902706693451822 0.5881543359879465 3.65390202954804
396 33 1 0.0 5.892032832739674 0.5291020703211923 4.14202721828205
397 34 5 8.861242189860825 5.700094790944309 2.1558490863683764 1.3932105480985668
398 34 6 -8.861242189860825 5.8279419467882105 1.9651441818607618 1.7765099236144946
399 34 3 0.0 5.781303985617008 1.938806914319102 2.2771198844334957
400 34 3 0.0 5.543731916267648 2.28661617310282 2.3422232611433795
401 34 1 0.0 5.801039427588284 1.7727585933738352 2.8118815463649427
402 34 2 0.0 6.093496738138585 1.9297097231280016 3.1238589595372868
403 34 1 0.0 5.985471394827494 1.7562414333368526 3.534129052521064
404 34 1 0.0 6.0509640193690055 1.724953089275614 4.014233622697658
405 34 1 0.0 5.648812070721276 2.5295026128880886 2.7778328593518644
406 34 1 0.0 5.49475226817941 2.3607936660184117 3.2171070599461555
407 34 1 0.0 5.686418770950349 2.40604376797585 3.6196033840510045
408 34 1 0.0 5.672869397081582 2.334813437524087 4.106029078017708
409 35 5 8.861242189860825 5.712373266628174 2.877530301276498 1.4292363598849387
410 35 6 -8.861242189860825 5.4711532299621295 2.9336542476438 1.8011162648092651
411 35 3 0.0 5.46214061062718 3.0464559433946063 2.2917012565114523
412 35 3 0.0 5.880764703743765 3.0392298317710327 2.3713998779723418
413 35 1 0.0 5.300402889217061 3.1926101404508724 2.807851842858235
414 35 2 0.0 5.242217142102649 2.903843134841691 3.155303821208303
415 35 1 0.0 5.154584671944803 3.141541795899703 3.5372752445670734
416 35 1 0.0 5.075401164492891 3.1651937911762578 4.015751156097562
417 35 1 0.0 5.999347112786383 2.8644031700461 2.83525894510231
418 35 1 0.0 5.9420655549621975 3.139563395594429 3.2428919028354835
419 35 1 0.0 5.851507822023394 3.0079941317355807 3.6615513548273633
420 35 1 0.0 5.787197811782935 3.1190981252275183 4.136301211565106
421 36 5 8.861242189860825 5.665845027815917 4.526408928355144 1.4262607477490508
422 36 6 -8.861242189860825 5.458445237173672 4.535380219299051 1.8219076988454626