Lipid soup setup

4864 atoms
1408 bonds
1024 angles
0 dihedrals
0 impropers

6 atom types
2 bond types
3 angle types
0 dihedral types
0 improper types

0 10.373608390765556 xlo xhi
0 10.373608390765556 ylo yhi
0 15.066508235294116 zlo zhi

Masses

1 1
2 1
3 1
4 1
5 1
6 1

Atoms

1 1 5 8.861242189860825 0.5408848083618862 0.66550766871205 4.327034703579694
2 1 6 -8.861242189860825 0.677021636326583 0.4804961261382251 4.710269827645453
3 1 3 0.0 0.6321014463879296 0.45248614150250577 5.21094607159113
4 1 3 0.0 0.38029672788416824 0.7901106148967143 5.276171197073345
5 1 1 0.0 0.6593667112118993 0.2876738187106427 5.745759189624202
6 1 2 0.0 0.9453792850435211 0.4568491954150282 6.057321930468277
7 1 1 0.0 0.8451610714676533 0.2792293394551675 6.4677969820779
8 1 1 0.0 0.9124566523147202 0.2509417511061481 6.947838396740982
9 1 1 0.0 0.475651958683785 1.0373887145403975 5.711547247102144
10 1 1 0.0 0.32927428903871886 0.8626174690225861 6.151078297643856
11 1 1 0.0 0.5193500005133579 0.9160282645578548 6.553328744203229
12 1 1 0.0 0.50934667168401 0.8445380806046574 7.039802164104217
13 2 5 8.861242189860825 0.6234443339941919 2.122671605818347 4.662198601294579
14 2 6 -8.861242189860825 0.4728996956395155 1.9643844873866323 5.051958998375628
15 2 3 0.0 0.45588744417196236 2.008494003619408 5.553201472466446
16 2 3 0.0 0.7562367967455261 2.3062322070340855 5.606045080648393
17 2 1 0.0 0.3149938535878805 1.9619412820102131 6.093491587009854
18 2 2 0.0 0.5337152681776104 1.705170495668112 6.399636239153669
19 2 1 0.0 0.35775137361357456 1.7820775916123344 6.8158144196974675
20 2 1 0.0 0.35574158392612326 1.7149263310513494 7.296704543944539
21 2 1 0.0 1.0292927663859321 2.250183193763307 6.03276551500563
22 2 1 0.0 0.8505648052389215 2.373395086389797 6.477775739877485
23 2 1 0.0 0.9442028068522557 2.195773058951995 6.878361874126115
24 2 1 0.0 0.8886670786822725 2.1990335568960826 7.3670053569530936
25 3 5 8.861242189860825 0.4029216147114083 3.062485105416058 4.415535160516973
26 3 6 -8.861242189860825 0.5412823679774299 3.2232754276240208 4.808771020239165
27 3 3 0.0 0.6249460236959593 3.1412990909280594 5.298423301852037
28 3 3 0.0 0.433791970144091 2.7624414426770354 5.3381376375765415
29 3 1 0.0 0.8035777536990572 3.1796153288403852 5.82809691699496
30 3 2 0.0 0.5532731004552677 3.3283243454240026 6.178422552520497
31 3 1 0.0 0.7882452684386624 3.271601269975485 6.567848854331645
32 3 1 0.0 0.822526753292659 3.2923216852253367 7.051753893400222
33 3 1 0.0 0.20444021561486964 2.6933804851715313 5.788048451389356
34 3 1 0.0 0.45887460964963644 2.5910087374540534 6.200288817222566
35 3 1 0.0 0.3609623667060396 2.6944291361892185 6.625146822604045
36 3 1 0.0 0.4677238627167897 2.664094298134664 7.104259629601774
37 4 5 8.861242189860825 0.8124075732600022 4.686263907781409 4.347117637002345
38 4 6 -8.861242189860825 0.9904105354482108 4.675616230487305 4.7567921902174515
39 4 3 0.0 0.9593527036650475 4.512638125857748 5.232136941373132
40 4 3 0.0 0.5630669862485187 4.355926437297354 5.22511589231599
41 4 1 0.0 1.0754654507137213 4.371578277445412 5.761808081580833
42 4 2 0.0 0.9590352400914992 4.614972152722943 6.128820710092418
43 4 1 0.0 1.0655630519702672 4.379426723286819 6.507307760763292
44 4 1 0.0 1.0660459469688663 4.325860010362964 6.98990388251194
45 4 1 0.0 0.3102748738796236 4.414788351201629 5.6637761327738145
46 4 1 0.0 0.39930317830152057 4.130338619626383 6.059150975220069
47 4 1 0.0 0.36061114289661145 4.2316255493835255 6.49392769399203
48 4 1 0.0 0.38177502814502356 4.09246689176 6.965154029449953
49 5 5 8.861242189860825 0.4475000818044968 5.603361075564125 4.689426719884653
50 5 6 -8.861242189860825 0.4139048479992966 5.77769265470821 5.099440778070756
51 5 3 0.0 0.5830988678662823 5.79076324125157 5.573446714071174
52 5 3 0.0 0.8391231788662505 5.450150023837022 5.564259408201268
53 5 1 0.0 0.6926104294602012 5.939923015809586 6.102304111827213
54 5 2 0.0 0.4917068020052864 5.763057825648149 6.470884196665973
55 5 1 0.0 0.6936508179328008 5.928053470576417 6.84781565348967
56 5 1 0.0 0.7490488204934957 5.942552445699024 7.32998728650074
57 5 1 0.0 0.852849745934759 5.190653888022879 6.002739419600831
58 5 1 0.0 1.106720528232795 5.351724516599862 6.396141037958034
59 5 1 0.0 1.0227947949329326 5.287442662485207 6.831584748960018
60 5 1 0.0 1.1551549444476041 5.344560907396219 7.301782152375043
61 6 5 8.861242189860825 0.9668501561322759 6.8396108766723565 4.602869143333308
62 6 6 -8.861242189860825 0.94905517264096 7.079596933226119 4.979328567911644
63 6 3 0.0 0.8853586900320709 7.087180141487299 5.478692500340381
64 6 3 0.0 0.7494110859255472 6.687401433713058 5.53653238310046
65 6 1 0.0 0.8803875352833608 7.236119856747351 6.018807133051758
66 6 2 0.0 0.5134664747720343 7.380347847372765 6.246978261875126
67 6 1 0.0 0.6194862230509547 7.428346687220772 6.690304547928167
68 6 1 0.0 0.4961753851450993 7.524736756749011 7.149947925340677
69 6 1 0.0 0.4028403537232575 6.6390676722642095 5.90713184158346
70 6 1 0.0 0.5266451848843692 6.650000400894948 6.386414424249181
71 6 1 0.0 0.28580550785341086 6.791573022679358 6.736757618357799
72 6 1 0.0 0.23948071417610306 6.852321049089057 7.222587827420156
73 7 5 8.861242189860825 0.30615770659505226 8.590919020976953 4.357222855758771
74 7 6 -8.861242189860825 0.15889940990532017 8.718865533569284 4.7591884651123975
75 7 3 0.0 0.2468372639362768 8.760550065631406 5.253160546884396
76 7 3 0.0 0.6032929773046385 8.528357291199582 5.2791616660593474
77 7 1 0.0 0.22494400257497668 8.906451111836619 5.793683569015199
78 7 2 0.0 0.049033414481981674 8.650357472102563 6.126799696874046
79 7 1 0.0 0.12825866081082044 8.851521341763778 6.530951561207891
80 7 1 0.0 0.10890502204482044 8.855402258847743 7.016110316459184
81 7 1 0.0 0.6456613196467014 8.26348111085859 5.712563230659744
82 7 1 0.0 0.7722173862167181 8.47762706746036 6.140680067640382
83 7 1 0.0 0.6570080131390179 8.362993150662874 6.5582597323802085
84 7 1 0.0 0.6960717799282401 8.43373482785958 7.043375119160639
85 8 5 8.861242189860825 1.1291283380149952 9.330269318649018 4.572261329073475
86 8 6 -8.861242189860825 1.228253056781213 9.269579987439121 5.0036808028323065
87 8 3 0.0 1.0947227937165254 9.329578745586431 5.485395346749786
88 8 3 0.0 0.7617316184888812 9.590240294754599 5.4322667076235165
89 8 1 0.0 1.0559347840230342 9.287645640777802 6.042771945339423
90 8 2 0.0 1.2268598139030198 9.587402915051786 6.340135447867033
91 8 1 0.0 1.0940815276520721 9.473596976953297 6.763810331133963
92 8 1 0.0 1.0713801028763001 9.560334016845479 7.241020949070922
93 8 1 0.0 0.7085018687150586 9.935085605945812 5.803803635305505
94 8 1 0.0 0.5254751761921926 9.81691035980868 6.2484324646063465
95 8 1 0.0 0.6151728937108867 9.999127409242323 6.647854769062608
96 8 1 0.0 0.5280236062824442 10.025101695619536 7.131174165949803
97 9 5 8.861242189860825 1.9987019572077376 1.1264487591026602 4.720025497284627
98 9 6 -8.861242189860825 1.810603254930092 1.0510714415162974 5.118232485327885
99 9 3 0.0 1.8664967738652822 1.0147471163844826 5.617267095249611
100 9 3 0.0 2.2921062817826603 1.0200697494096613 5.639140244031903
101 9 1 0.0 1.773530123422146 0.9898155341929282 6.169233747996891
102 9 2 0.0 1.7782346566408245 0.6084475357090622 6.418294300984986
103 9 1 0.0 1.735394928111751 0.7161358239778323 6.8617469611266975
104 9 1 0.0 1.7241302419521825 0.5924592406945058 7.3311570720542
105 9 1 0.0 2.483117503675906 0.7282902536873355 6.010853604741191
106 9 1 0.0 2.472280459834495 0.866759542391867 6.486109082760445
107 9 1 0.0 2.448138176626341 0.6116662178398211 6.853711390778223
108 9 1 0.0 2.447173942269403 0.5736592696952723 7.34403969243369
109 10 5 8.861242189860825 2.0758587788835374 2.3047895016199895 4.7411237483975235
110 10 6 -8.861242189860825 1.9924216826081136 2.4762656331071566 5.145185444709924
111 10 3 0.0 1.9441610767754767 2.3993937825435507 5.640403292197838
112 10 3 0.0 1.9463191856110584 1.9732112510186015 5.644146376338686
113 10 1 0.0 1.906988184042023 2.468901787748891 6.1951269899865915
114 10 2 0.0 1.5199128015951975 2.456330020079806 6.434938251015864
115 10 1 0.0 1.6175307221112434 2.479430014121336 6.882173539680418
116 10 1 0.0 1.4830505437206496 2.4715486228551833 7.3486728515123065
117 10 1 0.0 1.6447937240081654 1.7686266129008201 6.000543493883564
118 10 1 0.0 1.7722449869768253 1.7581745225446055 6.478880074332673
119 10 1 0.0 1.508832580928651 1.7684521734455805 6.841226849068402
120 10 1 0.0 1.45944681947474 1.7487684529160807 7.330144939315866
121 11 5 8.861242189860825 1.9361695100105012 2.903301462883585 4.426371674378454
122 11 6 -8.861242189860825 1.99889626862075 2.7379150786514357 4.836669572004558
123 11 3 0.0 1.9818166340509595 2.811712814041877 5.334405711228117
124 11 3 0.0 1.918667726264072 3.2331870693562177 5.339083941896929
125 11 1 0.0 1.9682049238918853 2.7379618928780536 5.889659788749625
126 11 2 0.0 2.3212866580882405 2.8006057412110126 6.170558131923918
127 11 1 0.0 2.18009469683247 2.7557503708093014 6.604303561156707
128 11 1 0.0 2.2607688931685472 2.7739506540570247 7.082768885274467
129 11 1 0.0 2.1476403833666557 3.471679162861577 5.727007165199856
130 11 1 0.0 1.9689551853789706 3.4552542839240536 6.188483901550517
131 11 1 0.0 2.190346483958442 3.475583454075259 6.577533421128392
132 11 1 0.0 2.183190538981706 3.4930492667558224 7.068971147700528
133 12 5 8.861242189860825 1.52141467629235 4.519261331553335 4.558172106018243
134 12 6 -8.861242189860825 1.4421693099965625 4.605754381674659 4.989299455339635
135 12 3 0.0 1.6181674590122093 4.625455625403663 5.460590868897707
136 12 3 0.0 1.9926882068762048 4.430613492943278 5.402101800454712
137 12 1 0.0 1.686159770872183 4.7342129122397605 6.006008567288779
138 12 2 0.0 1.6007603407485023 4.440830227216459 6.343837487628942
139 12 1 0.0 1.736674545263206 4.623525781320438 6.741621266935287
140 12 1 0.0 1.8095520753063539 4.595043840967741 7.220835506432024
141 12 1 0.0 2.140519329432859 4.145057054707072 5.79756970475089
142 12 1 0.0 2.3260738743348948 4.3440866795863124 6.211231008364722
143 12 1 0.0 2.303189816168123 4.192177280466517 6.632166591643682
144 12 1 0.0 2.4270846627926055 4.236165760304636 7.1060678280642255
145 13 5 8.861242189860825 1.7548471332307884 5.8571534342773415 4.5193255743153875
146 13 6 -8.861242189860825 1.95283091015824 5.704856049102647 4.889784205843963
147 13 3 0.0 1.9298561682513908 5.631568173059264 5.387358453986221
148 13 3 0.0 1.580498625677763 5.859733486266507 5.474192292929355
149 13 1 0.0 2.021536775354489 5.4519226722454155 5.910095221345067
150 13 2 0.0 2.240076818366055 5.687397088185302 6.2330300305456285
151 13 1 0.0 2.2135792274351394 5.4606735445781895 6.630492713078912
152 13 1 0.0 2.2959435906302708 5.426247120846098 7.107776251106739
153 13 1 0.0 1.5957064915558703 6.096461767855292 5.925324008788896
154 13 1 0.0 1.5253649162603464 5.855013365633448 6.3518374161635425
155 13 1 0.0 1.6943107923990177 5.943649074575033 6.757285209307956
156 13 1 0.0 1.7185557852322773 5.842185051022176 7.2378937126726735
157 14 5 8.861242189860825 1.520155789910668 7.277568845651703 4.674424407789882
158 14 6 -8.861242189860825 1.4094788343139846 7.272158841262563 5.1072673475311845
159 14 3 0.0 1.5585968257728187 7.3059346277607915 5.586956939689153
160 14 3 0.0 1.9805164343609474 7.28977676742289 5.52887952817842
161 14 1 0.0 1.5721061504776448 7.367299282074645 6.143718508924304
162 14 2 0.0 1.6131713501903915 7.026766999910651 6.443462159619138
163 14 1 0.0 1.6590027419532984 7.200359139599147 6.865181881857625
164 14 1 0.0 1.7340190868939993 7.147423603760789 7.341982699479749
165 14 1 0.0 2.2304234185010725 7.044861317290106 5.899492945511309
166 14 1 0.0 2.314628489969311 7.251646576432928 6.341429951611877
167 14 1 0.0 2.3537237982596224 7.054801753360108 6.742067672537693
168 14 1 0.0 2.44534355658032 7.088931831241723 7.224051343348794
169 15 5 8.861242189860825 1.9263400203895726 8.885469958859046 4.546315236192183
170 15 6 -8.861242189860825 1.7273310895602756 8.801311106699568 4.937396302193738
171 15 3 0.0 1.7557072712800166 8.801224804585894 5.440063059417571
172 15 3 0.0 2.1725281040463003 8.877860976624838 5.4852018320735105
173 15 1 0.0 1.6322077830118964 8.790600949223178 5.986475520590421
174 15 2 0.0 1.6821912660135696 8.428989991128594 6.258934707200214
175 15 1 0.0 1.5937098797913771 8.55149586992239 6.6916535830429735
176 15 1 0.0 1.5719912667537803 8.45272602974362 7.1665656413934276
177 15 1 0.0 2.383509168494075 8.641731297395978 5.8846028192714375
178 15 1 0.0 2.3194977179918794 8.801519902101925 6.3488539267893405
179 15 1 0.0 2.312956515030879 8.565798416634669 6.729878210638086
180 15 1 0.0 2.2861829699585705 8.554210576761273 7.220812218943501
181 16 5 8.861242189860825 1.7495506723101588 9.939697214655164 4.623620608302041
182 16 6 -8.861242189860825 1.7185078955267277 9.686552480052958 4.990479922596072
183 16 3 0.0 1.663413939828932 9.663499034048478 5.49039219352754
184 16 3 0.0 1.7126872179089971 10.076390338721948 5.583896914702088
185 16 1 0.0 1.566314223400053 9.48957836814192 6.014085629299154
186 16 2 0.0 1.8882273148492932 9.394548999581428 6.322040532847902
187 16 1 0.0 1.6906313503388695 9.30730064815997 6.726300141937031
188 16 1 0.0 1.71688681945687 9.208339447059528 7.200943137951966
189 16 1 0.0 1.9492420937288863 10.160533820285606 6.027465453689133
190 16 1 0.0 1.719932703033778 10.10510594580164 6.4627859205754214
191 16 1 0.0 1.8919893178518414 9.986132489908611 6.85905445202819
192 16 1 0.0 1.8323927221042116 9.908585954000879 7.341031714773537
193 17 5 8.861242189860825 3.377207043658677 0.6511385422876316 4.656753082765839
194 17 6 -8.861242189860825 3.3522576140799383 0.4823902592232863 5.069709751265168
195 17 3 0.0 3.275824053552533 0.5636197425830224 5.5606667410445
196 17 3 0.0 3.2822754779799177 0.9897746132913696 5.561456414429744
197 17 1 0.0 3.170406480806301 0.49937449014775265 6.107193273361137
198 17 2 0.0 3.484711389727538 0.5067242583381069 6.436819193292644
199 17 1 0.0 3.2770184440849226 0.49043303217633216 6.845084435308054
200 17 1 0.0 3.2897023334747715 0.5006400893468979 7.330371543710642
201 17 1 0.0 3.4886986577292496 1.1920730108449578 5.981285204238571
202 17 1 0.0 3.2450500051733293 1.2102631360710059 6.411939831838012
203 17 1 0.0 3.408320066158285 1.1985888575465355 6.829065123970266
204 17 1 0.0 3.3332905986530657 1.222554412688407 7.314517008745799
205 18 5 8.861242189860825 3.1423184296511715 1.8387761951131476 4.395516804447656
206 18 6 -8.861242189860825 3.048058825754947 1.9934007576054684 4.803974928224033
207 18 3 0.0 3.124484274983477 1.9628091106282608 5.300666367450046
208 18 3 0.0 3.3440865546267537 1.5977740652804715 5.313875180154433
209 18 1 0.0 3.1450726974784855 2.0707584744485774 5.850079344490253
210 18 2 0.0 2.86188227468669 1.8968172265716874 6.161595746435906
211 18 1 0.0 3.0031863977868825 2.018778817840711 6.5802134558170025
212 18 1 0.0 2.966998232393297 2.0013280066900703 7.064108618557356
213 18 1 0.0 3.249489106106133 1.315098777504502 5.727320929869048
214 18 1 0.0 3.4380290571387158 1.42672840192526 6.171337223080434
215 18 1 0.0 3.2671111838917692 1.3484650026851404 6.578091241958722
216 18 1 0.0 3.312448142430171 1.365745986103641 7.067492129843153
217 19 5 8.861242189860825 3.196642757127534 2.8789622008489775 4.6625225821533505
218 19 6 -8.861242189860825 3.1519902887467475 2.759424566956731 5.090714803337342
219 19 3 0.0 3.2232419420665606 2.8734281309809226 5.575900822554656
220 19 3 0.0 3.473117338838948 3.2156255964862006 5.52992910321274
221 19 1 0.0 3.1975244180866715 2.8866447100485324 6.13545019359203
222 19 2 0.0 3.5107999660838405 2.711401828561305 6.415884152787878
223 19 1 0.0 3.406619393189701 2.822297335068597 6.8482391763800665
224 19 1 0.0 3.507418816518985 2.8265709045105125 7.32320218073787
225 19 1 0.0 3.8277258220952928 3.262264830244595 5.8930668030181765
226 19 1 0.0 3.718479953772779 3.4223029282984347 6.34871151356208
227 19 1 0.0 3.9152892999286486 3.320413067273627 6.738161700897457
228 19 1 0.0 3.9538378859103904 3.387070632447506 7.2238962753137645
229 20 5 8.861242189860825 2.9044729891329224 4.367058312289459 4.535204672665359
230 20 6 -8.861242189860825 3.0601885887441447 4.164122358259124 4.901539652882985
231 20 3 0.0 3.0447616496842818 4.115559014271942 5.40242157023177
232 20 3 0.0 2.802840574291346 4.453563261519131 5.496642270787609
233 20 1 0.0 3.1011851536247375 3.9278868411487693 5.927328334589531
234 20 2 0.0 3.407995968650316 4.079751894211451 6.227826207122334
235 20 1 0.0 3.3295543852821443 3.8863102999696717 6.6358820111165375
236 20 1 0.0 3.424893070480551 3.8367939890953724 7.1094084757517475
237 20 1 0.0 2.9280191081834857 4.680843111802135 5.935351272120917
238 20 1 0.0 2.8052860580239267 4.489654261284886 6.375285786176466
239 20 1 0.0 3.0198633523328 4.523354057009026 6.767214120779554
240 20 1 0.0 3.037729531994952 4.43147297066557 7.250024608296259
241 21 5 8.861242189860825 3.099108319647194 6.322924256566702 4.466930963456278
242 21 6 -8.861242189860825 3.2002380532488788 6.454489394421283 4.881774378029164
243 21 3 0.0 3.245067497296081 6.33539561002941 5.368894563836126
244 21 3 0.0 3.0609952807911567 5.951039766506178 5.362712092634841
245 21 1 0.0 3.378122393707946 6.334798019649271 5.913162517198065
246 21 2 0.0 3.095918748988676 6.45040381877 6.251528065196008
247 21 1 0.0 3.299154559236711 6.367310552342481 6.65386248587698
248 21 1 0.0 3.2926475861772424 6.350095031499315 7.139073705647899
249 21 1 0.0 2.796956296298078 5.84207480305826 5.784851210641662
250 21 1 0.0 3.018852224428016 5.7120373138358795 6.207948602854095
251 21 1 0.0 2.883439373860443 5.7794497912530405 6.629737446612629
252 21 1 0.0 2.950837613013142 5.713099117954544 7.112357759872902
253 22 5 8.861242189860825 3.4601307792957328 7.2792851520717194 4.6505532488547
254 22 6 -8.861242189860825 3.309208013847877 7.429993591953369 5.0431611348548975
255 22 3 0.0 3.351960973752528 7.43296808339723 5.5448008669087
256 22 3 0.0 3.631258970009057 7.114463774078953 5.591682126729877
257 22 1 0.0 3.311324540759556 7.564032944948759 6.0880340120778005
258 22 2 0.0 3.0407332538490124 7.353921678405594 6.388248024200576
259 22 1 0.0 3.1259705181167323 7.515531781485449 6.808603891199166
260 22 1 0.0 3.0568662787012593 7.510556148369835 7.289195703257787
261 22 1 0.0 3.5572921356024594 6.8355499643132935 6.011833739451751
262 22 1 0.0 3.6887849197190112 6.996532797439858 6.461225695303979
263 22 1 0.0 3.5041376813539804 6.90444021735345 6.858983492193885
264 22 1 0.0 3.5084379369343566 6.948556058279734 7.348782023878906
265 23 5 8.861242189860825 3.059652512719758 8.453544841637903 4.626734417992912
266 23 6 -8.861242189860825 2.882974874884339 8.505611304224711 5.033804145305233
267 23 3 0.0 2.954194460159269 8.617641269415632 5.51945437080457
268 23 3 0.0 3.3803059212874875 8.61652210196136 5.528285477701789
269 23 1 0.0 2.8786179849033613 8.760722680883305 6.055875356328569
270 23 2 0.0 2.883297427032755 8.470681759274903 6.407086416190069
271 23 1 0.0 2.8571096293018687 8.706567504362683 6.799201687598684
272 23 1 0.0 2.8584136002825504 8.728432521703443 7.284267521609133
273 23 1 0.0 3.5770159765133944 8.442881756430001 5.965258666947639
274 23 1 0.0 3.5844871113773813 8.716642266697471 6.377761176010077
275 23 1 0.0 3.566848318580152 8.583210827404688 6.805162433526277
276 23 1 0.0 3.580935479802185 8.6927434664396 7.284402930703054
277 24 5 8.861242189860825 3.586642233552836 9.849440725854544 4.682022783607926
278 24 6 -8.861242189860825 3.7385632004719596 9.810421430821197 5.1003876740528495
279 24 3 0.0 3.6388289388546626 9.710798598402144 5.58371722236893
280 24 3 0.0 3.2129848681514908 9.70735134285035 5.566536938152472
281 24 1 0.0 3.6827990868325697 9.583169106831557 6.1275084567580675
282 24 2 0.0 3.6538461407533123 9.882550726798426 6.469600863125814
283 24 1 0.0 3.658246555427057 9.657688988893446 6.868975507707206
284 24 1 0.0 3.62746371217136 9.648964853003582 7.353480356663284
285 24 1 0.0 2.9882382017839766 9.890541318272144 5.9857287229056695
286 24 1 0.0 2.9581600532850145 9.627994094369932 6.404444873806234
287 24 1 0.0 2.948322338615713 9.773150296598152 6.828260644223383
288 24 1 0.0 2.9059791007599065 9.676494284023393 7.3086063184003525
289 25 5 8.861242189860825 4.483582436543291 0.48715695873070336 4.431224682628234
290 25 6 -8.861242189860825 4.504297602736261 0.38134872006432335 4.864822613494433
291 25 3 0.0 4.36433074950049 0.48506802202621196 5.337189706284335
292 25 3 0.0 4.184660358637557 0.8662359962094768 5.273316829459876
293 25 1 0.0 4.257564671960675 0.45428702887532557 5.88635735170569
294 25 2 0.0 4.512232215743683 0.6433372684108477 6.21331192199065
295 25 1 0.0 4.302968981615435 0.5915951661971423 6.617804103940012
296 25 1 0.0 4.274291674865999 0.6708405249476851 7.095994889967909
297 25 1 0.0 4.251079548472864 1.1927193912649001 5.659047911326019
298 25 1 0.0 3.9929047271690057 1.1586981079598981 6.080174102328039
299 25 1 0.0 4.113886953183656 1.2758818674103085 6.495406782206591
300 25 1 0.0 4.000497322154205 1.3286655308152844 6.971036867159222
301 26 5 8.861242189860825 4.115558907743368 1.7660449269549459 4.539288954067125
302 26 6 -8.861242189860825 3.9741589876754833 1.7618197387836587 4.963104807382272
303 26 3 0.0 4.070263915666754 1.863610030353573 5.446717941315661
304 26 3 0.0 4.486614964645191 1.9498105082922317 5.417196764046669
305 26 1 0.0 4.0222362847026565 1.9632005794149536 5.99599622855434
306 26 2 0.0 4.1204706860968034 1.664464156949869 6.325543484999645
307 26 1 0.0 4.087366180191552 1.8715857970982854 6.733081200344447
308 26 1 0.0 4.13335104090459 1.8708764513288487 7.216458415427724
309 26 1 0.0 4.757330326450891 1.8004278130600309 5.822399659878487
310 26 1 0.0 4.751498547521487 2.0505604293957904 6.249668450478051
311 26 1 0.0 4.804310340144637 1.8968063503395496 6.667229833585988
312 26 1 0.0 4.844593145113941 1.9846919624798274 7.149433852712773
313 27 5 8.861242189860825 4.274418350833047 3.6450356531254866 4.487673203540798
314 27 6 -8.861242189860825 4.493280900446098 3.6431555533500464 4.877195111439754
315 27 3 0.0 4.51142912461948 3.490001762574523 5.356458757343978
316 27 3 0.0 4.1170744533565715 3.3325427892864314 5.393082291769659
317 27 1 0.0 4.681435676772439 3.360122084516457 5.874301020087009
318 27 2 0.0 4.602110926453111 3.6108733996138476 6.246223329069458
319 27 1 0.0 4.747526203968443 3.3833838164316123 6.616608477484152
320 27 1 0.0 4.7973842169175365 3.3398185286271396 7.097633307291474
321 27 1 0.0 3.9100837732873117 3.400066170125023 5.853936753555059
322 27 1 0.0 4.039992958926405 3.12400430687191 6.2439013749820225
323 27 1 0.0 4.045433316897313 3.2342066420521514 6.678197079261361
324 27 1 0.0 4.115023073849022 3.1048656944535855 7.147553538960382
325 28 5 8.861242189860825 5.021626846374347 4.304642677114243 4.350282956639391
326 28 6 -8.861242189860825 5.01138927048518 4.136472790991637 4.76410145377667
327 28 3 0.0 4.847149426835944 4.177752751253957 5.238232577616674
328 28 3 0.0 4.687552192835299 4.572587198716898 5.221359513709278
329 28 1 0.0 4.705787495836248 4.073377440627266 5.770260928953185
330 28 2 0.0 4.947518553562772 4.200396593696479 6.134852580584331
331 28 1 0.0 4.711933924006494 4.101268716303908 6.515320473839382
332 28 1 0.0 4.65731767251079 4.112000080157992 6.997679826967598
333 28 1 0.0 4.743600339827155 4.836286402470154 5.653924790519144
334 28 1 0.0 4.458947631089624 4.754697728431767 6.050756087795345
335 28 1 0.0 4.558997771491425 4.804584418825972 6.484677968387473
336 28 1 0.0 4.418968555533747 4.793735964643942 6.95599678933528
337 29 5 8.861242189860825 4.6651374560628005 5.914246094617178 4.364690846067975
338 29 6 -8.861242189860825 4.749536431576295 6.130040406421151 4.746713482906233
339 29 3 0.0 4.769146219988686 6.116899483322022 5.249626851483261
340 29 3 0.0 4.577635485710544 5.741960602159582 5.315919327214306
341 29 1 0.0 4.876660298582658 6.230783772579768 5.787588429288381
342 29 2 0.0 4.581456564304756 6.418673808901428 6.079216499738669
343 29 1 0.0 4.763962644166786 6.421021181597656 6.499654714239067
344 29 1 0.0 4.734503201275077 6.507543368455789 6.976534882681494
345 29 1 0.0 4.292015751850393 5.728080878473342 5.737843614786104
346 29 1 0.0 4.491217467342252 5.688788506018904 6.189433850323665
347 29 1 0.0 4.3377283854896485 5.84582954527071 6.580030988910565
348 29 1 0.0 4.3811803718942635 5.8830289800483735 7.068493298806843
349 30 5 8.861242189860825 4.598862506661558 6.789898740271379 4.356454555259749
350 30 6 -8.861242189860825 4.695036128801874 6.6908123459421285 4.781383005701436
351 30 3 0.0 4.555106241782812 6.7014826320533345 5.264896041376904
352 30 3 0.0 4.21626674730037 6.957981648132196 5.232549943944524
353 30 1 0.0 4.511654714215839 6.6057770168040255 5.815244992127312
354 30 2 0.0 4.6719695178324585 6.879872704050212 6.141841930155729
355 30 1 0.0 4.537732149236262 6.723118977866185 6.551098414230513
356 30 1 0.0 4.507968513769727 6.763476766379331 7.034062199164772
357 30 1 0.0 4.15061960625356 7.264529468369676 5.63443334783544
358 30 1 0.0 3.9660461459491336 7.1002319554208855 6.063499682812866
359 30 1 0.0 4.047053006359457 7.245699482809565 6.479509295648198
360 30 1 0.0 3.9543211740645416 7.22346561751351 6.9619756299894835
361 31 5 8.861242189860825 4.150787595709264 8.343705860512506 4.438521185543847
362 31 6 -8.861242189860825 4.019658312880306 8.309579611613282 4.864281889992208
363 31 3 0.0 4.074028824938697 8.460269650098349 5.341582050975679
364 31 3 0.0 4.434054788653189 8.684905317712694 5.301954528007992
365 31 1 0.0 3.994096093001564 8.561576608017498 5.886815236202386
366 31 2 0.0 4.190402125760781 8.3311275310719 6.227185632083683
367 31 1 0.0 4.086930329241874 8.531885530973852 6.626024050942724
368 31 1 0.0 4.130139688787454 8.569130879321637 7.10822149797246
369 31 1 0.0 4.739790514020171 8.657867015987485 5.708877100516646
370 31 1 0.0 4.646845211206106 8.909294586161385 6.125175434001322
371 31 1 0.0 4.749925685372684 8.802687484431894 6.548018493109483
372 31 1 0.0 4.7568471647756265 8.920819546569646 7.02536973724471
373 32 5 8.861242189860825 4.633129971907883 9.265171551071179 4.406708309802176
374 32 6 -8.861242189860825 4.856975718781205 9.370172897127704 4.77886347376551
375 32 3 0.0 4.880993256663886 9.355786631988831 5.281551525348574
376 32 3 0.0 4.486846874655888 9.216770051288561 5.365057442085393
377 32 1 0.0 5.057395722320204 9.373641733757578 5.813054049407892
378 32 2 0.0 4.983327368370782 9.7180905699304 6.1017818107290775
379 32 1 0.0 5.133062656478187 9.601417142044657 6.51897352478659
380 32 1 0.0 5.189015643242104 9.692640742292813 6.9925937953386885
381 32 1 0.0 4.285922165287961 9.410513474649045 5.791536199601982
382 32 1 0.0 4.4203130836407665 9.252683145579415 6.2411889802126765
383 32 1 0.0 4.4315403425990665 9.47892972627223 6.627806807414951
384 32 1 0.0 4.5069124707772295 9.484400179099191 7.113766083177083
385 33 5 8.861242189860825 5.429563817205216 0.613669319723964 4.636028129419309
386 33 6 -8.861242189860825 5.3722954592058345 0.38045305500979476 5.012806812702159
387 33 3 0.0 5.385996528658925 0.37130195566452107 5.516004211375467
388 33 3 0.0 5.5787014172543286 0.7449283475457908 5.586135256504302
389 33 1 0.0 5.315255266882454 0.23280804210687586 6.05428543659142
390 33 2 0.0 5.630539258375666 0.03535821325265753 6.317162616560849
391 33 1 0.0 5.476350495119236 0.012671663206262673 6.748200221985141
392 33 1 0.0 5.538022311274959 10.279217046136235 7.217777417016091
393 33 1 0.0 5.8915727021327235 0.7432244565895572 5.98850329623543
394 33 1 0.0 5.7224838715885 0.7605953104842513 6.45354756901064
395 33 1 0.0 5.902706693451822 0.5881543359879465 6.825798500136274
396 33 1 0.0 5.892032832739674 0.5291020703211923 7.313923688870285
397 34 5 8.861242189860825 5.700094790944309 2.1558490863683764 4.565107018686803
398 34 6 -8.861242189860825 5.8279419467882105 1.9651441818607618 4.948406394202729
399 34 3 0.0 5.781303985617008 1.938806914319102 5.449016355021731
400 34 3 0.0 5.543731916267648 2.28661617310282 5.514119731731615
401 34 1 0.0 5.801039427588284 1.7727585933738352 5.983778016953178
402 34 2 0.0 6.093496738138585 1.9297097231280016 6.295755430125522
403 34 1 0.0 5.985471394827494 1.7562414333368526 6.706025523109299
404 34 1 0.0 6.0509640193690055 1.724953089275614 7.186130093285893
405 34 1 0.0 5.648812070721276 2.5295026128880886 5.9497293299401
406 34 1 0.0 5.49475226817941 2.3607936660184117 6.389003530534391
407 34 1 0.0 5.686418770950349 2.40604376797585 6.79149985463924
408 34 1 0.0 5.672869397081582 2.334813437524087 7.2779255486059435
409 35 5 8.861242189860825 5.712373266628174 2.877530301276498 4.6011328304731745
410 35 6 -8.861242189860825 5.4711532299621295 2.9336542476438 4.9730127353975
411 35 3 0.0 5.46214061062718 3.0464559433946063 5.463597727099687
412 35 3 0.0 5.880764703743765 3.0392298317710327 5.5432963485605775
413 35 1 0.0 5.300402889217061 3.1926101404508724 5.97974831344647
414 35 2 0.0 5.242217142102649 2.903843134841691 6.327200291796538
415 35 1 0.0 5.154584671944803 3.141541795899703 6.709171715155309
416 35 1 0.0 5.075401164492891 3.1651937911762578 7.187647626685798
417 35 1 0.0 5.999347112786383 2.8644031700461 6.007155415690545
418 35 1 0.0 5.9420655549621975 3.139563395594429 6.414788373423718
419 35 1 0.0 5.851507822023394 3.0079941317355807 6.833447825415599
420 35 1 0.0 5.787197811782935 3.1190981252275183 7.308197682153342
421 36 5 8.861242189860825 5.665845027815917 4.526408928355144 4.598157218337286
422 36 6 -8.861242189860825 5.458445237173672 4.535380219299051 4.993804169433697
423 36 3 0.0 5.495550780670229 4.533893823490009 5.495899830861172
424 36 3 0.0 5.909660625580259 4.440457549403679 5.533753725285659
425 36 1 0.0 5.389957293187476 4.583594346711186 6.043906620073677
426 36 2 0.0 5.299136986000224 4.237049635499455 6.32524854174324