Lipid soup setup

3328 atoms
1408 bonds
1024 angles
0 dihedrals
0 impropers

6 atom types
2 bond types
3 angle types
0 dihedral types
0 improper types

0 10.373608390765556 xlo xhi
0 10.373608390765556 ylo yhi
0 10.308663529411762 zlo zhi

Masses

1 1
2 1
3 1
4 1
5 1
6 1

Atoms

1 1 5 8.861242189860825 0.5408848083618862 0.66550766871205 1.9481123506385172
2 1 6 -8.861242189860825 0.677021636326583 0.4804961261382251 2.331347474704276
3 1 3 0.0 0.6321014463879296 0.45248614150250577 2.8320237186499533
4 1 3 0.0 0.38029672788416824 0.7901106148967143 2.897248844132168
5 1 1 0.0 0.6593667112118993 0.2876738187106427 3.3668368366830252
6 1 2 0.0 0.9453792850435211 0.4568491954150282 3.6783995775270997
7 1 1 0.0 0.8451610714676533 0.2792293394551675 4.088874629136722
8 1 1 0.0 0.9124566523147202 0.2509417511061481 4.568916043799805
9 1 1 0.0 0.475651958683785 1.0373887145403975 3.332624894160967
10 1 1 0.0 0.32927428903871886 0.8626174690225861 3.772155944702679
11 1 1 0.0 0.5193500005133579 0.9160282645578548 4.174406391262053
12 1 1 0.0 0.50934667168401 0.8445380806046574 4.66087981116304
13 2 5 8.861242189860825 0.6234443339941919 2.122671605818347 2.2832762483534017
14 2 6 -8.861242189860825 0.4728996956395155 1.9643844873866323 2.6730366454344514
15 2 3 0.0 0.45588744417196236 2.008494003619408 3.1742791195252695
16 2 3 0.0 0.7562367967455261 2.3062322070340855 3.2271227277072168
17 2 1 0.0 0.3149938535878805 1.9619412820102131 3.7145692340686773
18 2 2 0.0 0.5337152681776104 1.705170495668112 4.020713886212493
19 2 1 0.0 0.35775137361357456 1.7820775916123344 4.4368920667562906
20 2 1 0.0 0.35574158392612326 1.7149263310513494 4.917782191003363
21 2 1 0.0 1.0292927663859321 2.250183193763307 3.653843162064453
22 2 1 0.0 0.8505648052389215 2.373395086389797 4.098853386936308
23 2 1 0.0 0.9442028068522557 2.195773058951995 4.499439521184939
24 2 1 0.0 0.8886670786822725 2.1990335568960826 4.988083004011917
25 3 5 8.861242189860825 0.4029216147114083 3.062485105416058 2.0366128075757954
26 3 6 -8.861242189860825 0.5412823679774299 3.2232754276240208 2.429848667297988
27 3 3 0.0 0.6249460236959593 3.1412990909280594 2.91950094891086
28 3 3 0.0 0.433791970144091 2.7624414426770354 2.9592152846353637
29 3 1 0.0 0.8035777536990572 3.1796153288403852 3.449174564053783
30 3 2 0.0 0.5532731004552677 3.3283243454240026 3.7995001995793194
31 3 1 0.0 0.7882452684386624 3.271601269975485 4.188926501390468
32 3 1 0.0 0.822526753292659 3.2923216852253367 4.672831540459045
33 3 1 0.0 0.20444021561486964 2.6933804851715313 3.409126098448179
34 3 1 0.0 0.45887460964963644 2.5910087374540534 3.8213664642813883
35 3 1 0.0 0.3609623667060396 2.6944291361892185 4.246224469662868
36 3 1 0.0 0.4677238627167897 2.664094298134664 4.725337276660597
37 4 5 8.861242189860825 0.8124075732600022 4.686263907781409 1.968195284061168
38 4 6 -8.861242189860825 0.9904105354482108 4.675616230487305 2.3778698372762745
39 4 3 0.0 0.9593527036650475 4.512638125857748 2.8532145884319546
40 4 3 0.0 0.5630669862485187 4.355926437297354 2.846193539374813
41 4 1 0.0 1.0754654507137213 4.371578277445412 3.382885728639656
42 4 2 0.0 0.9590352400914992 4.614972152722943 3.749898357151241
43 4 1 0.0 1.0655630519702672 4.379426723286819 4.128385407822115
44 4 1 0.0 1.0660459469688663 4.325860010362964 4.610981529570763
45 4 1 0.0 0.3102748738796236 4.414788351201629 3.284853779832637
46 4 1 0.0 0.39930317830152057 4.130338619626383 3.6802286222788916
47 4 1 0.0 0.36061114289661145 4.2316255493835255 4.115005341050853
48 4 1 0.0 0.38177502814502356 4.09246689176 4.586231676508776
49 5 5 8.861242189860825 0.4475000818044968 5.603361075564125 2.3105043669434773
50 5 6 -8.861242189860825 0.4139048479992966 5.77769265470821 2.7205184251295798
51 5 3 0.0 0.5830988678662823 5.79076324125157 3.1945243611299974
52 5 3 0.0 0.8391231788662505 5.450150023837022 3.1853370552600913
53 5 1 0.0 0.6926104294602012 5.939923015809586 3.7233817588860374
54 5 2 0.0 0.4917068020052864 5.763057825648149 4.091961843724796
55 5 1 0.0 0.6936508179328008 5.928053470576417 4.468893300548494
56 5 1 0.0 0.7490488204934957 5.942552445699024 4.951064933559563
57 5 1 0.0 0.852849745934759 5.190653888022879 3.623817066659654
58 5 1 0.0 1.106720528232795 5.351724516599862 4.017218685016858
59 5 1 0.0 1.0227947949329326 5.287442662485207 4.452662396018841
60 5 1 0.0 1.1551549444476041 5.344560907396219 4.922859799433866
61 6 5 8.861242189860825 0.9668501561322759 6.8396108766723565 2.2239467903921315
62 6 6 -8.861242189860825 0.94905517264096 7.079596933226119 2.6004062149704668
63 6 3 0.0 0.8853586900320709 7.087180141487299 3.099770147399204
64 6 3 0.0 0.7494110859255472 6.687401433713058 3.1576100301592827
65 6 1 0.0 0.8803875352833608 7.236119856747351 3.6398847801105814
66 6 2 0.0 0.5134664747720343 7.380347847372765 3.86805590893395
67 6 1 0.0 0.6194862230509547 7.428346687220772 4.31138219498699
68 6 1 0.0 0.4961753851450993 7.524736756749011 4.7710255723995
69 6 1 0.0 0.4028403537232575 6.6390676722642095 3.5282094886422835
70 6 1 0.0 0.5266451848843692 6.650000400894948 4.007492071308004
71 6 1 0.0 0.28580550785341086 6.791573022679358 4.357835265416622
72 6 1 0.0 0.23948071417610306 6.852321049089057 4.843665474478978
73 7 5 8.861242189860825 0.30615770659505226 8.590919020976953 1.9783005028175933
74 7 6 -8.861242189860825 0.15889940990532017 8.718865533569284 2.3802661121712205
75 7 3 0.0 0.2468372639362768 8.760550065631406 2.874238193943218
76 7 3 0.0 0.6032929773046385 8.528357291199582 2.9002393131181705
77 7 1 0.0 0.22494400257497668 8.906451111836619 3.4147612160740217
78 7 2 0.0 0.049033414481981674 8.650357472102563 3.7478773439328683
79 7 1 0.0 0.12825866081082044 8.851521341763778 4.152029208266713
80 7 1 0.0 0.10890502204482044 8.855402258847743 4.637187963518007
81 7 1 0.0 0.6456613196467014 8.26348111085859 3.333640877718566
82 7 1 0.0 0.7722173862167181 8.47762706746036 3.761757714699204
83 7 1 0.0 0.6570080131390179 8.362993150662874 4.179337379439031
84 7 1 0.0 0.6960717799282401 8.43373482785958 4.664452766219462
85 8 5 8.861242189860825 1.1291283380149952 9.330269318649018 2.1933389761322983
86 8 6 -8.861242189860825 1.228253056781213 9.269579987439121 2.6247584498911296
87 8 3 0.0 1.0947227937165254 9.329578745586431 3.106472993808609
88 8 3 0.0 0.7617316184888812 9.590240294754599 3.05334435468234
89 8 1 0.0 1.0559347840230342 9.287645640777802 3.663849592398246
90 8 2 0.0 1.2268598139030198 9.587402915051786 3.9612130949258564
91 8 1 0.0 1.0940815276520721 9.473596976953297 4.384887978192786
92 8 1 0.0 1.0713801028763001 9.560334016845479 4.862098596129745
93 8 1 0.0 0.7085018687150586 9.935085605945812 3.424881282364328
94 8 1 0.0 0.5254751761921926 9.81691035980868 3.86951011166517
95 8 1 0.0 0.6151728937108867 9.999127409242323 4.268932416121431
96 8 1 0.0 0.5280236062824442 10.025101695619536 4.752251813008626
97 9 5 8.861242189860825 1.9987019572077376 1.1264487591026602 2.3411031443434505
98 9 6 -8.861242189860825 1.810603254930092 1.0510714415162974 2.739310132386709
99 9 3 0.0 1.8664967738652822 1.0147471163844826 3.238344742308435
100 9 3 0.0 2.2921062817826603 1.0200697494096613 3.2602178910907265
101 9 1 0.0 1.773530123422146 0.9898155341929282 3.790311395055715
102 9 2 0.0 1.7782346566408245 0.6084475357090622 4.03937194804381
103 9 1 0.0 1.735394928111751 0.7161358239778323 4.4828246081855205
104 9 1 0.0 1.7241302419521825 0.5924592406945058 4.952234719113024
105 9 1 0.0 2.483117503675906 0.7282902536873355 3.631931251800015
106 9 1 0.0 2.472280459834495 0.866759542391867 4.107186729819268
107 9 1 0.0 2.448138176626341 0.6116662178398211 4.474789037837047
108 9 1 0.0 2.447173942269403 0.5736592696952723 4.965117339492514
109 10 5 8.861242189860825 2.0758587788835374 2.3047895016199895 2.3622013954563466
110 10 6 -8.861242189860825 1.9924216826081136 2.4762656331071566 2.766263091768747
111 10 3 0.0 1.9441610767754767 2.3993937825435507 3.261480939256661
112 10 3 0.0 1.9463191856110584 1.9732112510186015 3.2652240233975087
113 10 1 0.0 1.906988184042023 2.468901787748891 3.8162046370454146
114 10 2 0.0 1.5199128015951975 2.456330020079806 4.056015898074687
115 10 1 0.0 1.6175307221112434 2.479430014121336 4.503251186739241
116 10 1 0.0 1.4830505437206496 2.4715486228551833 4.96975049857113
117 10 1 0.0 1.6447937240081654 1.7686266129008201 3.621621140942387
118 10 1 0.0 1.7722449869768253 1.7581745225446055 4.099957721391496
119 10 1 0.0 1.508832580928651 1.7684521734455805 4.462304496127226
120 10 1 0.0 1.45944681947474 1.7487684529160807 4.951222586374689
121 11 5 8.861242189860825 1.9361695100105012 2.903301462883585 2.047449321437278
122 11 6 -8.861242189860825 1.99889626862075 2.7379150786514357 2.4577472190633816
123 11 3 0.0 1.9818166340509595 2.811712814041877 2.9554833582869406
124 11 3 0.0 1.918667726264072 3.2331870693562177 2.9601615889557524
125 11 1 0.0 1.9682049238918853 2.7379618928780536 3.5107374358084478
126 11 2 0.0 2.3212866580882405 2.8006057412110126 3.791635778982741
127 11 1 0.0 2.18009469683247 2.7557503708093014 4.225381208215531
128 11 1 0.0 2.2607688931685472 2.7739506540570247 4.70384653233329
129 11 1 0.0 2.1476403833666557 3.471679162861577 3.348084812258679
130 11 1 0.0 1.9689551853789706 3.4552542839240536 3.80956154860934
131 11 1 0.0 2.190346483958442 3.475583454075259 4.198611068187215
132 11 1 0.0 2.183190538981706 3.4930492667558224 4.690048794759351
133 12 5 8.861242189860825 1.52141467629235 4.519261331553335 2.179249753077066
134 12 6 -8.861242189860825 1.4421693099965625 4.605754381674659 2.6103771023984583
135 12 3 0.0 1.6181674590122093 4.625455625403663 3.0816685159565305
136 12 3 0.0 1.9926882068762048 4.430613492943278 3.0231794475135354
137 12 1 0.0 1.686159770872183 4.7342129122397605 3.627086214347602
138 12 2 0.0 1.6007603407485023 4.440830227216459 3.964915134687765
139 12 1 0.0 1.736674545263206 4.623525781320438 4.362698913994109
140 12 1 0.0 1.8095520753063539 4.595043840967741 4.8419131534908475
141 12 1 0.0 2.140519329432859 4.145057054707072 3.418647351809712
142 12 1 0.0 2.3260738743348948 4.3440866795863124 3.8323086554235446
143 12 1 0.0 2.303189816168123 4.192177280466517 4.253244238702505
144 12 1 0.0 2.4270846627926055 4.236165760304636 4.727145475123049
145 13 5 8.861242189860825 1.7548471332307884 5.8571534342773415 2.1404032213742106
146 13 6 -8.861242189860825 1.95283091015824 5.704856049102647 2.5108618529027864
147 13 3 0.0 1.9298561682513908 5.631568173059264 3.008436101045044
148 13 3 0.0 1.580498625677763 5.859733486266507 3.095269939988178
149 13 1 0.0 2.021536775354489 5.4519226722454155 3.5311728684038894
150 13 2 0.0 2.240076818366055 5.687397088185302 3.854107677604451
151 13 1 0.0 2.2135792274351394 5.4606735445781895 4.251570360137735
152 13 1 0.0 2.2959435906302708 5.426247120846098 4.728853898165562
153 13 1 0.0 1.5957064915558703 6.096461767855292 3.5464016558477187
154 13 1 0.0 1.5253649162603464 5.855013365633448 3.972915063222365
155 13 1 0.0 1.6943107923990177 5.943649074575033 4.378362856366779
156 13 1 0.0 1.7185557852322773 5.842185051022176 4.8589713597314965
157 14 5 8.861242189860825 1.520155789910668 7.277568845651703 2.295502054848705
158 14 6 -8.861242189860825 1.4094788343139846 7.272158841262563 2.7283449945900076
159 14 3 0.0 1.5585968257728187 7.3059346277607915 3.2080345867479765
160 14 3 0.0 1.9805164343609474 7.28977676742289 3.1499571752372435
161 14 1 0.0 1.5721061504776448 7.367299282074645 3.7647961559831273
162 14 2 0.0 1.6131713501903915 7.026766999910651 4.064539806677961
163 14 1 0.0 1.6590027419532984 7.200359139599147 4.486259528916448
164 14 1 0.0 1.7340190868939993 7.147423603760789 4.963060346538572
165 14 1 0.0 2.2304234185010725 7.044861317290106 3.5205705925701323
166 14 1 0.0 2.314628489969311 7.251646576432928 3.9625075986707
167 14 1 0.0 2.3537237982596224 7.054801753360108 4.363145319596516
168 14 1 0.0 2.44534355658032 7.088931831241723 4.845128990407618
169 15 5 8.861242189860825 1.9263400203895726 8.885469958859046 2.167392883251006
170 15 6 -8.861242189860825 1.7273310895602756 8.801311106699568 2.558473949252561
171 15 3 0.0 1.7557072712800166 8.801224804585894 3.061140706476393
172 15 3 0.0 2.1725281040463003 8.877860976624838 3.106279479132333
173 15 1 0.0 1.6322077830118964 8.790600949223178 3.607553167649243
174 15 2 0.0 1.6821912660135696 8.428989991128594 3.8800123542590366
175 15 1 0.0 1.5937098797913771 8.55149586992239 4.312731230101796
176 15 1 0.0 1.5719912667537803 8.45272602974362 4.787643288452251
177 15 1 0.0 2.383509168494075 8.641731297395978 3.5056804663302596
178 15 1 0.0 2.3194977179918794 8.801519902101925 3.969931573848163
179 15 1 0.0 2.312956515030879 8.565798416634669 4.350955857696908
180 15 1 0.0 2.2861829699585705 8.554210576761273 4.841889866002324
181 16 5 8.861242189860825 1.7495506723101588 9.939697214655164 2.244698255360864
182 16 6 -8.861242189860825 1.7185078955267277 9.686552480052958 2.611557569654895
183 16 3 0.0 1.663413939828932 9.663499034048478 3.111469840586363
184 16 3 0.0 1.7126872179089971 10.076390338721948 3.2049745617609102
185 16 1 0.0 1.566314223400053 9.48957836814192 3.635163276357977
186 16 2 0.0 1.8882273148492932 9.394548999581428 3.943118179906725
187 16 1 0.0 1.6906313503388695 9.30730064815997 4.347377788995854
188 16 1 0.0 1.71688681945687 9.208339447059528 4.822020785010789
189 16 1 0.0 1.9492420937288863 10.160533820285606 3.648543100747956
190 16 1 0.0 1.719932703033778 10.10510594580164 4.0838635676342445
191 16 1 0.0 1.8919893178518414 9.986132489908611 4.4801320990870135
192 16 1 0.0 1.8323927221042116 9.908585954000879 4.96210936183236
193 17 5 8.861242189860825 3.377207043658677 0.6511385422876316 2.277830729824662
194 17 6 -8.861242189860825 3.3522576140799383 0.4823902592232863 2.690787398323991
195 17 3 0.0 3.275824053552533 0.5636197425830224 3.181744388103323
196 17 3 0.0 3.2822754779799177 0.9897746132913696 3.182534061488567
197 17 1 0.0 3.170406480806301 0.49937449014775265 3.72827092041996
198 17 2 0.0 3.484711389727538 0.5067242583381069 4.057896840351467
199 17 1 0.0 3.2770184440849226 0.49043303217633216 4.4661620823668775
200 17 1 0.0 3.2897023334747715 0.5006400893468979 4.951449190769465
201 17 1 0.0 3.4886986577292496 1.1920730108449578 3.602362851297394
202 17 1 0.0 3.2450500051733293 1.2102631360710059 4.033017478896835
203 17 1 0.0 3.408320066158285 1.1985888575465355 4.450142771029089
204 17 1 0.0 3.3332905986530657 1.222554412688407 4.935594655804622
205 18 5 8.861242189860825 3.1423184296511715 1.8387761951131476 2.0165944515064784
206 18 6 -8.861242189860825 3.048058825754947 1.9934007576054684 2.425052575282856
207 18 3 0.0 3.124484274983477 1.9628091106282608 2.921744014508869
208 18 3 0.0 3.3440865546267537 1.5977740652804715 2.934952827213256
209 18 1 0.0 3.1450726974784855 2.0707584744485774 3.4711569915490763
210 18 2 0.0 2.86188227468669 1.8968172265716874 3.7826733934947296
211 18 1 0.0 3.0031863977868825 2.018778817840711 4.2012911028758255
212 18 1 0.0 2.966998232393297 2.0013280066900703 4.685186265616179
213 18 1 0.0 3.249489106106133 1.315098777504502 3.3483985769278712
214 18 1 0.0 3.4380290571387158 1.42672840192526 3.7924148701392575
215 18 1 0.0 3.2671111838917692 1.3484650026851404 4.199168889017545
216 18 1 0.0 3.312448142430171 1.365745986103641 4.688569776901977
217 19 5 8.861242189860825 3.196642757127534 2.8789622008489775 2.2836002292121735
218 19 6 -8.861242189860825 3.1519902887467475 2.759424566956731 2.7117924503961643
219 19 3 0.0 3.2232419420665606 2.8734281309809226 3.196978469613479
220 19 3 0.0 3.473117338838948 3.2156255964862006 3.151006750271563
221 19 1 0.0 3.1975244180866715 2.8866447100485324 3.7565278406508527
222 19 2 0.0 3.5107999660838405 2.711401828561305 4.036961799846701
223 19 1 0.0 3.406619393189701 2.822297335068597 4.46931682343889
224 19 1 0.0 3.507418816518985 2.8265709045105125 4.944279827796693
225 19 1 0.0 3.8277258220952928 3.262264830244595 3.514144450076999
226 19 1 0.0 3.718479953772779 3.4223029282984347 3.969789160620903
227 19 1 0.0 3.9152892999286486 3.320413067273627 4.35923934795628
228 19 1 0.0 3.9538378859103904 3.387070632447506 4.844973922372587
229 20 5 8.861242189860825 2.9044729891329224 4.367058312289459 2.1562823197241814
230 20 6 -8.861242189860825 3.0601885887441447 4.164122358259124 2.5226172999418077
231 20 3 0.0 3.0447616496842818 4.115559014271942 3.023499217290593
232 20 3 0.0 2.802840574291346 4.453563261519131 3.1177199178464314
233 20 1 0.0 3.1011851536247375 3.9278868411487693 3.548405981648354
234 20 2 0.0 3.407995968650316 4.079751894211451 3.848903854181157
235 20 1 0.0 3.3295543852821443 3.8863102999696717 4.256959658175361
236 20 1 0.0 3.424893070480551 3.8367939890953724 4.730486122810571
237 20 1 0.0 2.9280191081834857 4.680843111802135 3.556428919179739
238 20 1 0.0 2.8052860580239267 4.489654261284886 3.996363433235288
239 20 1 0.0 3.0198633523328 4.523354057009026 4.3882917678383775
240 20 1 0.0 3.037729531994952 4.43147297066557 4.8711022553550825
241 21 5 8.861242189860825 3.099108319647194 6.322924256566702 2.088008610515101
242 21 6 -8.861242189860825 3.2002380532488788 6.454489394421283 2.502852025087986
243 21 3 0.0 3.245067497296081 6.33539561002941 2.9899722108949494
244 21 3 0.0 3.0609952807911567 5.951039766506178 2.9837897396936643
245 21 1 0.0 3.378122393707946 6.334798019649271 3.534240164256887
246 21 2 0.0 3.095918748988676 6.45040381877 3.872605712254831
247 21 1 0.0 3.299154559236711 6.367310552342481 4.274940132935802
248 21 1 0.0 3.2926475861772424 6.350095031499315 4.760151352706722
249 21 1 0.0 2.796956296298078 5.84207480305826 3.405928857700485
250 21 1 0.0 3.018852224428016 5.7120373138358795 3.8290262499129173
251 21 1 0.0 2.883439373860443 5.7794497912530405 4.250815093671451
252 21 1 0.0 2.950837613013142 5.713099117954544 4.733435406931725
253 22 5 8.861242189860825 3.4601307792957328 7.2792851520717194 2.271630895913523
254 22 6 -8.861242189860825 3.309208013847877 7.429993591953369 2.6642387819137205
255 22 3 0.0 3.351960973752528 7.43296808339723 3.1658785139675234
256 22 3 0.0 3.631258970009057 7.114463774078953 3.2127597737886995
257 22 1 0.0 3.311324540759556 7.564032944948759 3.709111659136624
258 22 2 0.0 3.0407332538490124 7.353921678405594 4.009325671259399
259 22 1 0.0 3.1259705181167323 7.515531781485449 4.429681538257989
260 22 1 0.0 3.0568662787012593 7.510556148369835 4.9102733503166105
261 22 1 0.0 3.5572921356024594 6.8355499643132935 3.6329113865105738
262 22 1 0.0 3.6887849197190112 6.996532797439858 4.082303342362801
263 22 1 0.0 3.5041376813539804 6.90444021735345 4.480061139252708
264 22 1 0.0 3.5084379369343566 6.948556058279734 4.969859670937729
265 23 5 8.861242189860825 3.059652512719758 8.453544841637903 2.2478120650517357
266 23 6 -8.861242189860825 2.882974874884339 8.505611304224711 2.6548817923640557
267 23 3 0.0 2.954194460159269 8.617641269415632 3.140532017863393
268 23 3 0.0 3.3803059212874875 8.61652210196136 3.1493631247606113
269 23 1 0.0 2.8786179849033613 8.760722680883305 3.676953003387392
270 23 2 0.0 2.883297427032755 8.470681759274903 4.028164063248892
271 23 1 0.0 2.8571096293018687 8.706567504362683 4.420279334657508
272 23 1 0.0 2.8584136002825504 8.728432521703443 4.905345168667956
273 23 1 0.0 3.5770159765133944 8.442881756430001 3.5863363140064624
274 23 1 0.0 3.5844871113773813 8.716642266697471 3.9988388230689003
275 23 1 0.0 3.566848318580152 8.583210827404688 4.4262400805851
276 23 1 0.0 3.580935479802185 8.6927434664396 4.905480577761878
277 24 5 8.861242189860825 3.586642233552836 9.849440725854544 2.303100430666749
278 24 6 -8.861242189860825 3.7385632004719596 9.810421430821197 2.7214653211116717
279 24 3 0.0 3.6388289388546626 9.710798598402144 3.204794869427753
280 24 3 0.0 3.2129848681514908 9.70735134285035 3.1876145852112945
281 24 1 0.0 3.6827990868325697 9.583169106831557 3.74858610381689
282 24 2 0.0 3.6538461407533123 9.882550726798426 4.090678510184636
283 24 1 0.0 3.658246555427057 9.657688988893446 4.490053154766029
284 24 1 0.0 3.62746371217136 9.648964853003582 4.974558003722107
285 24 1 0.0 2.9882382017839766 9.890541318272144 3.606806369964492
286 24 1 0.0 2.9581600532850145 9.627994094369932 4.0255225208650565
287 24 1 0.0 2.948322338615713 9.773150296598152 4.449338291282206
288 24 1 0.0 2.9059791007599065 9.676494284023393 4.9296839654591755
289 25 5 8.861242189860825 4.483582436543291 0.48715695873070336 2.0523023296870573
290 25 6 -8.861242189860825 4.504297602736261 0.38134872006432335 2.4859002605532563
291 25 3 0.0 4.36433074950049 0.48506802202621196 2.9582673533431585
292 25 3 0.0 4.184660358637557 0.8662359962094768 2.8943944765186997
293 25 1 0.0 4.257564671960675 0.45428702887532557 3.5074349987645133
294 25 2 0.0 4.512232215743683 0.6433372684108477 3.834389569049473
295 25 1 0.0 4.302968981615435 0.5915951661971423 4.238881750998835
296 25 1 0.0 4.274291674865999 0.6708405249476851 4.717072537026732
297 25 1 0.0 4.251079548472864 1.1927193912649001 3.2801255583848423
298 25 1 0.0 3.9929047271690057 1.1586981079598981 3.701251749386862
299 25 1 0.0 4.113886953183656 1.2758818674103085 4.116484429265414
300 25 1 0.0 4.000497322154205 1.3286655308152844 4.592114514218046
301 26 5 8.861242189860825 4.115558907743368 1.7660449269549459 2.160366601125948
302 26 6 -8.861242189860825 3.9741589876754833 1.7618197387836587 2.5841824544410947
303 26 3 0.0 4.070263915666754 1.863610030353573 3.067795588374484
304 26 3 0.0 4.486614964645191 1.9498105082922317 3.038274411105492
305 26 1 0.0 4.0222362847026565 1.9632005794149536 3.6170738756131624
306 26 2 0.0 4.1204706860968034 1.664464156949869 3.9466211320584677
307 26 1 0.0 4.087366180191552 1.8715857970982854 4.35415884740327
308 26 1 0.0 4.13335104090459 1.8708764513288487 4.837536062486547
309 26 1 0.0 4.757330326450891 1.8004278130600309 3.44347730693731
310 26 1 0.0 4.751498547521487 2.0505604293957904 3.870746097536874
311 26 1 0.0 4.804310340144637 1.8968063503395496 4.288307480644811
312 26 1 0.0 4.844593145113941 1.9846919624798274 4.770511499771597
313 27 5 8.861242189860825 4.274418350833047 3.6450356531254866 2.1087508505996215
314 27 6 -8.861242189860825 4.493280900446098 3.6431555533500464 2.4982727584985773
315 27 3 0.0 4.51142912461948 3.490001762574523 2.977536404402801
316 27 3 0.0 4.1170744533565715 3.3325427892864314 3.0141599388284823
317 27 1 0.0 4.681435676772439 3.360122084516457 3.495378667145833
318 27 2 0.0 4.602110926453111 3.6108733996138476 3.8673009761282824
319 27 1 0.0 4.747526203968443 3.3833838164316123 4.237686124542976
320 27 1 0.0 4.7973842169175365 3.3398185286271396 4.718710954350298
321 27 1 0.0 3.9100837732873117 3.400066170125023 3.4750144006138823
322 27 1 0.0 4.039992958926405 3.12400430687191 3.864979022040846
323 27 1 0.0 4.045433316897313 3.2342066420521514 4.299274726320184
324 27 1 0.0 4.115023073849022 3.1048656944535855 4.768631186019206
325 28 5 8.861242189860825 5.021626846374347 4.304642677114243 1.9713606036982136
326 28 6 -8.861242189860825 5.01138927048518 4.136472790991637 2.385179100835493
327 28 3 0.0 4.847149426835944 4.177752751253957 2.8593102246754967
328 28 3 0.0 4.687552192835299 4.572587198716898 2.8424371607681014
329 28 1 0.0 4.705787495836248 4.073377440627266 3.391338576012008
330 28 2 0.0 4.947518553562772 4.200396593696479 3.755930227643154
331 28 1 0.0 4.711933924006494 4.101268716303908 4.136398120898205
332 28 1 0.0 4.65731767251079 4.112000080157992 4.618757474026421
333 28 1 0.0 4.743600339827155 4.836286402470154 3.2750024375779674
334 28 1 0.0 4.458947631089624 4.754697728431767 3.671833734854168
335 28 1 0.0 4.558997771491425 4.804584418825972 4.105755615446296
336 28 1 0.0 4.418968555533747 4.793735964643942 4.577074436394103
337 29 5 8.861242189860825 4.6651374560628005 5.914246094617178 1.985768493126798
338 29 6 -8.861242189860825 4.749536431576295 6.130040406421151 2.367791129965056
339 29 3 0.0 4.769146219988686 6.116899483322022 2.870704498542084
340 29 3 0.0 4.577635485710544 5.741960602159582 2.936996974273129
341 29 1 0.0 4.876660298582658 6.230783772579768 3.408666076347204
342 29 2 0.0 4.581456564304756 6.418673808901428 3.700294146797492
343 29 1 0.0 4.763962644166786 6.421021181597656 4.12073236129789
344 29 1 0.0 4.734503201275077 6.507543368455789 4.597612529740317
345 29 1 0.0 4.292015751850393 5.728080878473342 3.3589212618449267
346 29 1 0.0 4.491217467342252 5.688788506018904 3.810511497382488
347 29 1 0.0 4.3377283854896485 5.84582954527071 4.201108635969388
348 29 1 0.0 4.3811803718942635 5.8830289800483735 4.6895709458656665
349 30 5 8.861242189860825 4.598862506661558 6.789898740271379 1.977532202318572
350 30 6 -8.861242189860825 4.695036128801874 6.6908123459421285 2.4024606527602588
351 30 3 0.0 4.555106241782812 6.7014826320533345 2.885973688435727
352 30 3 0.0 4.21626674730037 6.957981648132196 2.853627591003347
353 30 1 0.0 4.511654714215839 6.6057770168040255 3.4363226391861352
354 30 2 0.0 4.6719695178324585 6.879872704050212 3.7629195772145514
355 30 1 0.0 4.537732149236262 6.723118977866185 4.172176061289336
356 30 1 0.0 4.507968513769727 6.763476766379331 4.655139846223595
357 30 1 0.0 4.15061960625356 7.264529468369676 3.255510994894263
358 30 1 0.0 3.9660461459491336 7.1002319554208855 3.684577329871689
359 30 1 0.0 4.047053006359457 7.245699482809565 4.100586942707021
360 30 1 0.0 3.9543211740645416 7.22346561751351 4.583053277048307
361 31 5 8.861242189860825 4.150787595709264 8.343705860512506 2.05959883260267
362 31 6 -8.861242189860825 4.019658312880306 8.309579611613282 2.485359537051031
363 31 3 0.0 4.074028824938697 8.460269650098349 2.9626596980345017
364 31 3 0.0 4.434054788653189 8.684905317712694 2.9230321750668153
365 31 1 0.0 3.994096093001564 8.561576608017498 3.507892883261209
366 31 2 0.0 4.190402125760781 8.3311275310719 3.8482632791425053
367 31 1 0.0 4.086930329241874 8.531885530973852 4.247101698001547
368 31 1 0.0 4.130139688787454 8.569130879321637 4.729299145031283
369 31 1 0.0 4.739790514020171 8.657867015987485 3.3299547475754685
370 31 1 0.0 4.646845211206106 8.909294586161385 3.746253081060145
371 31 1 0.0 4.749925685372684 8.802687484431894 4.169096140168306
372 31 1 0.0 4.7568471647756265 8.920819546569646 4.646447384303533
373 32 5 8.861242189860825 4.633129971907883 9.265171551071179 2.027785956860999
374 32 6 -8.861242189860825 4.856975718781205 9.370172897127704 2.399941120824333
375 32 3 0.0 4.880993256663886 9.355786631988831 2.9026291724073974
376 32 3 0.0 4.486846874655888 9.216770051288561 2.9861350891442164
377 32 1 0.0 5.057395722320204 9.373641733757578 3.4341316964667157
378 32 2 0.0 4.983327368370782 9.7180905699304 3.7228594577879006
379 32 1 0.0 5.133062656478187 9.601417142044657 4.140051171845413
380 32 1 0.0 5.189015643242104 9.692640742292813 4.613671442397512
381 32 1 0.0 4.285922165287961 9.410513474649045 3.412613846660805
382 32 1 0.0 4.4203130836407665 9.252683145579415 3.8622666272714996
383 32 1 0.0 4.4315403425990665 9.47892972627223 4.2488844544737745
384 32 1 0.0 4.5069124707772295 9.484400179099191 4.734843730235905
385 33 5 8.861242189860825 5.429563817205216 0.613669319723964 2.257105776478132
386 33 6 -8.861242189860825 5.3722954592058345 0.38045305500979476 2.6338844597609823
387 33 3 0.0 5.385996528658925 0.37130195566452107 3.13708185843429
388 33 3 0.0 5.5787014172543286 0.7449283475457908 3.2072129035631254
389 33 1 0.0 5.315255266882454 0.23280804210687586 3.675363083650243
390 33 2 0.0 5.630539258375666 0.03535821325265753 3.9382402636196727
391 33 1 0.0 5.476350495119236 0.012671663206262673 4.369277869043964
392 33 1 0.0 5.538022311274959 10.279217046136235 4.838855064074914
393 33 1 0.0 5.8915727021327235 0.7432244565895572 3.609580943294253
394 33 1 0.0 5.7224838715885 0.7605953104842513 4.074625216069464
395 33 1 0.0 5.902706693451822 0.5881543359879465 4.446876147195098
396 33 1 0.0 5.892032832739674 0.5291020703211923 4.935001335929108
397 34 5 8.861242189860825 5.700094790944309 2.1558490863683764 2.186184665745625
398 34 6 -8.861242189860825 5.8279419467882105 1.9651441818607618 2.569484041261553
399 34 3 0.0 5.781303985617008 1.938806914319102 3.070094002080554
400 34 3 0.0 5.543731916267648 2.28661617310282 3.135197378790438
401 34 1 0.0 5.801039427588284 1.7727585933738352 3.604855664012001
402 34 2 0.0 6.093496738138585 1.9297097231280016 3.916833077184345
403 34 1 0.0 5.985471394827494 1.7562414333368526 4.327103170168122
404 34 1 0.0 6.0509640193690055 1.724953089275614 4.807207740344717
405 34 1 0.0 5.648812070721276 2.5295026128880886 3.570806976998923
406 34 1 0.0 5.49475226817941 2.3607936660184117 4.010081177593214
407 34 1 0.0 5.686418770950349 2.40604376797585 4.412577501698063
408 34 1 0.0 5.672869397081582 2.334813437524087 4.899003195664767
409 35 5 8.861242189860825 5.712373266628174 2.877530301276498 2.222210477531997
410 35 6 -8.861242189860825 5.4711532299621295 2.9336542476438 2.5940903824563235
411 35 3 0.0 5.46214061062718 3.0464559433946063 3.0846753741585107
412 35 3 0.0 5.880764703743765 3.0392298317710327 3.1643739956194
413 35 1 0.0 5.300402889217061 3.1926101404508724 3.6008259605052935
414 35 2 0.0 5.242217142102649 2.903843134841691 3.9482779388553615
415 35 1 0.0 5.154584671944803 3.141541795899703 4.330249362214132
416 35 1 0.0 5.075401164492891 3.1651937911762578 4.808725273744621
417 35 1 0.0 5.999347112786383 2.8644031700461 3.628233062749368
418 35 1 0.0 5.9420655549621975 3.139563395594429 4.035866020482541
419 35 1 0.0 5.851507822023394 3.0079941317355807 4.454525472474422
420 35 1 0.0 5.787197811782935 3.1190981252275183 4.929275329212166
421 36 5 8.861242189860825 5.665845027815917 4.526408928355144 2.219234865396109
422 36 6 -8.861242189860825 5.458445237173672 4.535380219299051 2.614881816492521
423 36 3 0.0 5.495550780670229 4.533893823490009 3.1169774779199955
424 36 3 0.0 5.909660625580259 4.440457549403679 3.154831372344482