Lipid soup setup

4400 atoms
1408 bonds
1024 angles
0 dihedrals
0 impropers

6 atom types
2 bond types
3 angle types
0 dihedral types
0 improper types

0 12.06616629509267 xlo xhi
0 12.06616629509267 ylo yhi
0 10.073788043478258 zlo zhi

Masses

1 1
2 1
3 1
4 1
5 1
6 1

Atoms

1 1 5 8.861242189860825 0.6466696773823308 0.7712925377324946 1.8306746076717653
2 1 6 -8.861242189860825 0.7828065053470276 0.5862809951586697 2.213909731737524
3 1 3 0.0 0.7378863154083742 0.5582710105229504 2.7145859756832014
4 1 3 0.0 0.48608159690461283 0.8958954839171589 2.779811101165416
5 1 1 0.0 0.7651515802323439 0.3934586877310873 3.2493990937162733
6 1 2 0.0 1.0511641540639656 0.5626340644354728 3.5609618345603478
7 1 1 0.0 0.9509459404880979 0.3850142084756121 3.9714368861699705
8 1 1 0.0 1.0182415213351648 0.3567266201265927 4.451478300833053
9 1 1 0.0 0.5814368277042297 1.143173583560842 3.215187151194215
10 1 1 0.0 0.43505915805916345 0.9684023380430307 3.654718201735927
11 1 1 0.0 0.6251348695338025 1.0218131335782994 4.056968648295301
12 1 1 0.0 0.6151315407044546 0.950322949625102 4.543442068196288
13 2 5 8.861242189860825 0.7292292030146365 2.4400262128796806 2.16583850538665
14 2 6 -8.861242189860825 0.5786845646599601 2.281739094447966 2.5555989024676995
15 2 3 0.0 0.561672313192407 2.3258486106807417 3.0568413765585176
16 2 3 0.0 0.8620216657659707 2.623586814095419 3.109684984740465
17 2 1 0.0 0.4207787226083251 2.279295889071547 3.5971314911019254
18 2 2 0.0 0.639500137198055 2.0225251027294457 3.903276143245741
19 2 1 0.0 0.46353624263401916 2.099432198673668 4.319454323789539
20 2 1 0.0 0.46152645294656786 2.0322809381126827 4.800344448036611
21 2 1 0.0 1.1350776354063767 2.5675378008246406 3.5364054190977012
22 2 1 0.0 0.9563496742593661 2.6907496934511306 3.9814156439695565
23 2 1 0.0 1.0499876758727003 2.5131276660133284 4.3820017782181875
24 2 1 0.0 0.994451947702717 2.516388163957416 4.870645261045165
25 3 5 8.861242189860825 0.5087064837318529 3.591409450518281 1.9191750646090437
26 3 6 -8.861242189860825 0.6470672369978745 3.752199772726244 2.3124109243312363
27 3 3 0.0 0.7307308927164039 3.6702234360302826 2.802063205944108
28 3 3 0.0 0.5395768391645356 3.2913657877792586 2.8417775416686117
29 3 1 0.0 0.9093626227195017 3.7085396739426084 3.331736821087031
30 3 2 0.0 0.6590579694757123 3.8572486905262258 3.6820624566125675
31 3 1 0.0 0.894030137459107 3.8005256150777083 4.071488758423716
32 3 1 0.0 0.9283116223131036 3.82124603032756 4.555393797492293
33 3 1 0.0 0.31022508463531423 3.2223048302737545 3.291688355481427
34 3 1 0.0 0.564659478670081 3.1199330825562765 3.7039287213146364
35 3 1 0.0 0.4667472357264842 3.2233534812914417 4.1287867266961165
36 3 1 0.0 0.5735087317372343 3.193018643236887 4.607899533693845
37 4 5 8.861242189860825 0.9181924422804468 5.426757990924521 1.8507575410944161
38 4 6 -8.861242189860825 1.0961954044686555 5.4161103136304165 2.2604320943095226
39 4 3 0.0 1.0651375726854921 5.25313220900086 2.7357768454652027
40 4 3 0.0 0.6688518552689633 5.096420520440466 2.728755796408061
41 4 1 0.0 1.181250319734166 5.112072360588524 3.265447985672904
42 4 2 0.0 1.0648201091119438 5.3554662358660545 3.632460614184489
43 4 1 0.0 1.1713479209907118 5.119920806429931 4.0109476648553635
44 4 1 0.0 1.1718308159893112 5.066354093506076 4.493543786604011
45 4 1 0.0 0.4160597429000682 5.155282434344741 3.1674160368658852
46 4 1 0.0 0.5050880473219652 4.870832702769495 3.5627908793121397
47 4 1 0.0 0.46639601191705604 4.9721196325266375 3.9975675980841014
48 4 1 0.0 0.48755989716546816 4.832960974903112 4.468793933542024
49 5 5 8.861242189860825 0.5532849508249413 6.555424896748127 2.1930666239767254
50 5 6 -8.861242189860825 0.5196897170197412 6.729756475892212 2.603080682162828
51 5 3 0.0 0.6888837368867269 6.7428270624355715 3.0770866181632455
52 5 3 0.0 0.9449080478866951 6.4022138450210235 3.0678993122933393
53 5 1 0.0 0.7983952984806458 6.8919868369935875 3.6059440159192855
54 5 2 0.0 0.597491671025731 6.71512164683215 3.9745241007580443
55 5 1 0.0 0.7994356869532454 6.880117291760419 4.351455557581742
56 5 1 0.0 0.8548336895139403 6.894616266883026 4.833627190592811
57 5 1 0.0 0.9586346149552036 6.142717709206881 3.506379323692902
58 5 1 0.0 1.2125053972532396 6.303788337783864 3.899780942050106
59 5 1 0.0 1.1285796639533772 6.239506483669208 4.335224653052089
60 5 1 0.0 1.2609398134680485 6.296624728580221 4.805422056467114
61 6 5 8.861242189860825 1.0726350251527204 8.003244435897246 2.1065090474253796
62 6 6 -8.861242189860825 1.0548400416614045 8.243230492451008 2.482968472003715
63 6 3 0.0 0.9911435590525155 8.250813700712188 2.982332404432452
64 6 3 0.0 0.8551959549459918 7.851034992937947 3.0401722871925307
65 6 1 0.0 0.9861724043038054 8.39975341597224 3.5224470371438295
66 6 2 0.0 0.6192513437924789 8.543981406597656 3.750618165967198
67 6 1 0.0 0.7252710920713993 8.591980246445662 4.193944452020238
68 6 1 0.0 0.6019602541655439 8.6883703159739 4.653587829432748
69 6 1 0.0 0.508625222743702 7.802701231489099 3.4107717456755315
70 6 1 0.0 0.6324300539048138 7.813633960119837 3.8900543283412525
71 6 1 0.0 0.39159037687385545 7.955206581904247 4.24039752244987
72 6 1 0.0 0.34526558319654765 8.015954608313947 4.7262277315122265
73 7 5 8.861242189860825 0.41194257561549685 9.966122318242732 1.8608627598508414
74 7 6 -8.861242189860825 0.26468427892576474 10.094068830835063 2.2628283692044686
75 7 3 0.0 0.3526221329567214 10.135753362897185 2.756800450976466
76 7 3 0.0 0.7090778463250831 9.90356058846536 2.7828015701514186
77 7 1 0.0 0.3307288715954213 10.281654409102398 3.29732347310727
78 7 2 0.0 0.15481828350242627 10.025560769368342 3.6304396009661164
79 7 1 0.0 0.23404352983126503 10.226724639029557 4.034591465299961
80 7 1 0.0 0.21468989106526504 10.230605556113522 4.519750220551255
81 7 1 0.0 0.751446188667146 9.63868440812437 3.2162031347518143
82 7 1 0.0 0.8780022552371627 9.85283036472614 3.644319971732452
83 7 1 0.0 0.7627928821594625 9.738196447928653 4.061899636472279
84 7 1 0.0 0.8018566489486847 9.808938125125358 4.54701502325271
85 8 5 8.861242189860825 1.23491320703544 10.917042353955686 2.0759012331655464
86 8 6 -8.861242189860825 1.3340379258016577 10.85635302274579 2.5073207069243777
87 8 3 0.0 1.2005076627369697 10.9163517808931 2.989035250841857
88 8 3 0.0 0.8675164875093258 11.177013330061268 2.935906611715588
89 8 1 0.0 1.1617196530434788 10.87441867608447 3.546411849431494
90 8 2 0.0 1.3326446829234646 11.174175950358455 3.8437753519591045
91 8 1 0.0 1.1998663966725167 11.060370012259966 4.267450235226034
92 8 1 0.0 1.1771649718967447 11.147107052152148 4.744660853162993
93 8 1 0.0 0.8142867377355032 11.52185864125248 3.307443539397576
94 8 1 0.0 0.6312600452126372 11.40368339511535 3.752072368698418
95 8 1 0.0 0.7209577627313313 11.585900444548992 4.151494673154679
96 8 1 0.0 0.6338084753028888 11.611874730926205 4.634814070041874
97 9 5 8.861242189860825 2.316056564269071 1.2322336281231048 2.2236654013766985
98 9 6 -8.861242189860825 2.1279578619914257 1.156856310536742 2.621872389419957
99 9 3 0.0 2.183851380926616 1.1205319854049272 3.120906999341683
100 9 3 0.0 2.609460888843994 1.125854618430106 3.1427801481239745
101 9 1 0.0 2.09088473048348 1.0956004032133728 3.672873652088963
102 9 2 0.0 2.095589263702158 0.7142324047295068 3.921934205077058
103 9 1 0.0 2.0527495351730844 0.8219206929982769 4.365386865218769
104 9 1 0.0 2.041484849013516 0.6982441097149504 4.834796976146272
105 9 1 0.0 2.8004721107372395 0.8340751227077801 3.514493508833263
106 9 1 0.0 2.7896350668958285 0.9725444114123116 3.9897489868525158
107 9 1 0.0 2.7654927836876744 0.7174510868602657 4.357351294870295
108 9 1 0.0 2.7645285493307368 0.6794441387157168 4.847679596525762
109 10 5 8.861242189860825 2.393213385944871 2.622144108681323 2.2447636524895946
110 10 6 -8.861242189860825 2.3097762896694474 2.79362024016849 2.6488253488019953
111 10 3 0.0 2.2615156838368105 2.7167483896048843 3.144043196289909
112 10 3 0.0 2.263673792672392 2.290565858079935 3.147786280430757
113 10 1 0.0 2.2243427911033566 2.7862563948102244 3.6987668940786627
114 10 2 0.0 1.837267408656531 2.7736846271411397 3.938578155107935
115 10 1 0.0 1.934885329172577 2.7967846211826695 4.385813443772489
116 10 1 0.0 1.8004051507819832 2.788903229916517 4.852312755604378
117 10 1 0.0 1.962148331069499 2.0859812199621537 3.504183397975635
118 10 1 0.0 2.089599594038159 2.0755291296059393 3.982519978424744
119 10 1 0.0 1.8261871879899845 2.085806780506914 4.344866753160474
120 10 1 0.0 1.7768014265360736 2.0661230599774143 4.833784843407937
121 11 5 8.861242189860825 2.253524117071835 3.4322258079858083 1.9300115784705258
122 11 6 -8.861242189860825 2.3162508756820834 3.266839423753659 2.3403094760966296
123 11 3 0.0 2.299171241112293 3.3406371591441 2.8380456153201887
124 11 3 0.0 2.2360223333254052 3.762111414458441 2.8427238459890005
125 11 1 0.0 2.285559530953219 3.2668862379802768 3.393299692841696
126 11 2 0.0 2.638641265149574 3.3295300863132358 3.674198036015989
127 11 1 0.0 2.4974493038938035 3.2846747159115246 4.107943465248779
128 11 1 0.0 2.578123500229881 3.302874999159248 4.586408789366538
129 11 1 0.0 2.4649949904279893 4.0006035079638 3.230647069291927
130 11 1 0.0 2.286309792440304 3.984178629026277 3.6921238056425882
131 11 1 0.0 2.5077010910197757 4.004507799177482 4.081173325220463
132 11 1 0.0 2.5005451460430397 4.021973611858045 4.572611051792599
133 12 5 8.861242189860825 1.8387692833536835 5.259755414696447 2.061812010110314
134 12 6 -8.861242189860825 1.759523917057896 5.346248464817771 2.4929393594317064
135 12 3 0.0 1.9355220660735428 5.365949708546775 2.9642307729897786
136 12 3 0.0 2.3100428139375384 5.17110757608639 2.9057417045467835
137 12 1 0.0 2.0035143779335165 5.474706995382872 3.5096484713808502
138 12 2 0.0 1.9181149478098358 5.181324310359571 3.847477391721013
139 12 1 0.0 2.0540291523245395 5.3640198644635495 4.245261171027357
140 12 1 0.0 2.126906682367687 5.335537924110853 4.724475410524096
141 12 1 0.0 2.4578739364941926 4.885551137850184 3.30120960884296
142 12 1 0.0 2.6434284813962283 5.084580762729424 3.7148709124567927
143 12 1 0.0 2.6205444232294566 4.932671363609629 4.135806495735753
144 12 1 0.0 2.744439269853939 4.976659843447748 4.609707732156297
145 13 5 8.861242189860825 2.072201740292122 6.809217255461343 2.0229654784074587
146 13 6 -8.861242189860825 2.270185517219574 6.656919870286648 2.3934241099360345
147 13 3 0.0 2.2472107753127246 6.583631994243266 2.890998358078292
148 13 3 0.0 1.8978532327390967 6.811797307450509 2.977832197021426
149 13 1 0.0 2.338891382415823 6.403986493429417 3.4137351254371375
150 13 2 0.0 2.5574314254273887 6.639460909369304 3.7366699346376993
151 13 1 0.0 2.530933834496473 6.412737365762191 4.134132617170983
152 13 1 0.0 2.6132981976916048 6.378310942030099 4.61141615519881
153 13 1 0.0 1.913061098617204 7.0485255890392935 3.428963912880967
154 13 1 0.0 1.8427195233216804 6.80707718681745 3.855477320255613
155 13 1 0.0 2.0116653994603513 6.895712895759035 4.260925113400027
156 13 1 0.0 2.035910392293611 6.794248872206177 4.741533616764745
157 14 5 8.861242189860825 1.8375103969720017 8.441202404876591 2.178064311881953
158 14 6 -8.861242189860825 1.7268334413753184 8.435792400487452 2.6109072516232557
159 14 3 0.0 1.8759514328341524 8.469568186985681 3.0905968437812246
160 14 3 0.0 2.297871041422281 8.45341032664778 3.0325194322704916
161 14 1 0.0 1.8894607575389788 8.530932841299533 3.6473584130163754
162 14 2 0.0 1.9305259572517253 8.19040055913554 3.9471020637112084
163 14 1 0.0 1.976357349014632 8.363992698824037 4.368821785949696
164 14 1 0.0 2.051373693955333 8.311057162985678 4.84562260357182
165 14 1 0.0 2.5477780255624065 8.208494876514996 3.4031328496033804
166 14 1 0.0 2.6319830970306444 8.415280135657817 3.845069855703948
167 14 1 0.0 2.671078405320956 8.218435312584997 4.245707576629764
168 14 1 0.0 2.762698163641654 8.252565390466613 4.727691247440866
169 15 5 8.861242189860825 2.243694627450906 10.260673256124825 2.049955140284254
170 15 6 -8.861242189860825 2.044685696621609 10.176514403965347 2.4410362062858093
171 15 3 0.0 2.07306187834135 10.176428101851673 2.943702963509641
172 15 3 0.0 2.489882711107634 10.253064273890617 2.9888417361655812
173 15 1 0.0 1.9495623900732295 10.165804246488957 3.4901154246824913
174 15 2 0.0 1.999545873074903 9.804193288394373 3.7625746112922847
175 15 1 0.0 1.9110644868527102 9.926699167188168 4.195293487135044
176 15 1 0.0 1.8893458738151137 9.827929327009398 4.670205545485499
177 15 1 0.0 2.700863775555408 10.016934594661757 3.3882427233635077
178 15 1 0.0 2.636852325053213 10.176723199367704 3.852493830881411
179 15 1 0.0 2.630311122092212 9.941001713900448 4.233518114730156
180 15 1 0.0 2.603537577019904 9.929413874027052 4.724452123035572
181 16 5 8.861242189860825 2.0669052793714924 11.526470249961832 2.127260512394112
182 16 6 -8.861242189860825 2.0358625025880612 11.273325515359627 2.4941198266881432
183 16 3 0.0 1.9807685468902656 11.250272069355146 2.994032097619611
184 16 3 0.0 2.030041824970331 11.663163374028617 3.0875368187941583
185 16 1 0.0 1.8836688304613867 11.076351403448589 3.517725533391225
186 16 2 0.0 2.205581921910627 10.981322034888096 3.8256804369399733
187 16 1 0.0 2.007985957400203 10.894073683466639 4.229940046029102
188 16 1 0.0 2.0342414265182036 10.795112482366196 4.704583042044037
189 16 1 0.0 2.26659670079022 11.747306855592274 3.531105357781204
190 16 1 0.0 2.037287310095112 11.691878981108308 3.9664258246674926
191 16 1 0.0 2.209343924913175 11.57290552521528 4.362694356120262
192 16 1 0.0 2.149747329165545 11.495358989307547 4.8446716188656085
193 17 5 8.861242189860825 3.9061313887609 0.7569234113080762 2.16039298685791
194 17 6 -8.861242189860825 3.8811819591821615 0.5881751282437309 2.573349655357239
195 17 3 0.0 3.8047483986547563 0.669404611603467 3.064306645136571
196 17 3 0.0 3.811199823082141 1.0955594823118142 3.065096318521815
197 17 1 0.0 3.699330825908524 0.6051593591681972 3.610833177453208
198 17 2 0.0 4.013635734829761 0.6125091273585515 3.9404590973847147
199 17 1 0.0 3.805942789187146 0.5962179011967768 4.348724339400126
200 17 1 0.0 3.8186266785769947 0.6064249583673424 4.834011447802713
201 17 1 0.0 4.017623002831473 1.2978578798654024 3.4849251083306423
202 17 1 0.0 3.7739743502755525 1.3160480050914505 3.9155797359300832
203 17 1 0.0 3.937244411260508 1.3043737265669801 4.332705028062337
204 17 1 0.0 3.862214943755289 1.3283392817088515 4.81815691283787
205 18 5 8.861242189860825 3.6712427747533947 2.156130802174481 1.8991567085397265
206 18 6 -8.861242189860825 3.57698317085717 2.310755364666802 2.307614832316104
207 18 3 0.0 3.6534086200857003 2.2801637176895944 2.804306271542117
208 18 3 0.0 3.873010899728977 1.915128672341805 2.817515084246504
209 18 1 0.0 3.6739970425807087 2.388113081509911 3.3537192485823244
210 18 2 0.0 3.390806619788913 2.2141718336330207 3.6652356505279777
211 18 1 0.0 3.5321107428891056 2.3361334249020445 4.083853359909074
212 18 1 0.0 3.49592257749552 2.318682613751404 4.567748522649427
213 18 1 0.0 3.778413451208356 1.6324533845658356 3.2309608339611193
214 18 1 0.0 3.966953402240939 1.7440830089865935 3.6749771271725056
215 18 1 0.0 3.7960355289939924 1.665819609746474 4.081731146050793
216 18 1 0.0 3.8413724875323942 1.6831005931649745 4.571132033935225
217 19 5 8.861242189860825 3.725567102229757 3.4078865459512007 2.1661624862454216
218 19 6 -8.861242189860825 3.68091463384897 3.288348912058954 2.5943547074294124
219 19 3 0.0 3.7521662871687838 3.402352476083146 3.079540726646727
220 19 3 0.0 4.0020416839411705 3.744549941588424 3.033569007304811
221 19 1 0.0 3.7264487631888943 3.4155690551507556 3.6390900976841007
222 19 2 0.0 4.039724311186063 3.240326173663528 3.9195240568799483
223 19 1 0.0 3.9355437382919236 3.3512216801708203 4.351879080472138
224 19 1 0.0 4.0363431616212075 3.3554952496127357 4.826842084829941
225 19 1 0.0 4.3566501671975155 3.791189175346818 3.3967067071102472
226 19 1 0.0 4.247404298875002 3.951227273400658 3.852351417654151
227 19 1 0.0 4.444213645030871 3.84933741237585 4.241801604989528
228 19 1 0.0 4.482762231012613 3.915994977549729 4.727536179405835
229 20 5 8.861242189860825 3.4333973342351456 5.107552395432571 2.0388445767574295
230 20 6 -8.861242189860825 3.589112933846368 4.9046164414022355 2.405179556975056
231 20 3 0.0 3.573685994786505 4.856053097415054 2.906061474323841
232 20 3 0.0 3.331764919393569 5.194057344662243 3.0002821748796795
233 20 1 0.0 3.6301094987269606 4.668380924291881 3.430968238681602
234 20 2 0.0 3.9369203137525393 4.8202459773545625 3.731466111214405
235 20 1 0.0 3.8584787303843675 4.626804383112784 4.139521915208609
236 20 1 0.0 3.9538174155827743 4.577288072238485 4.613048379843819
237 20 1 0.0 3.456943453285709 5.421337194945247 3.438991176212987
238 20 1 0.0 3.33421040312615 5.230148344427998 3.8789256902685363
239 20 1 0.0 3.548787697435023 5.263848140152138 4.270854024871626
240 20 1 0.0 3.5666538770971754 5.171967053808682 4.7536645123883305
241 21 5 8.861242189860825 3.628032664749417 7.274988077750703 1.970570867548349
242 21 6 -8.861242189860825 3.729162398351102 7.4065532156052845 2.3854142821212343
243 21 3 0.0 3.773991842398304 7.287459431213412 2.8725344679281974
244 21 3 0.0 3.58991962589338 6.90310358769018 2.8663519967269124
245 21 1 0.0 3.9070467388101693 7.286861840833272 3.416802421290135
246 21 2 0.0 3.6248430940908993 7.4024676399540015 3.7551679692880793
247 21 1 0.0 3.828078904338934 7.3193743735264825 4.15750238996905
248 21 1 0.0 3.8215719312794656 7.302158852683316 4.64271360973997
249 21 1 0.0 3.325880641400301 6.794138624242262 3.2884911147337332
250 21 1 0.0 3.5477765695302392 6.664101135019881 3.7115885069461654
251 21 1 0.0 3.4123637189626663 6.731513612437042 4.133377350704699
252 21 1 0.0 3.479761958115365 6.665162939138545 4.615997663964973
253 22 5 8.861242189860825 3.989055124397956 8.442918711296608 2.154193152946771
254 22 6 -8.861242189860825 3.8381323589501 8.593627151178259 2.5468010389469686
255 22 3 0.0 3.880885318854751 8.596601642622119 3.0484407710007715
256 22 3 0.0 4.16018331511128 8.278097333303842 3.0953220308219476
257 22 1 0.0 3.8402488858617794 8.72766650417365 3.591673916169872
258 22 2 0.0 3.5696575989512356 8.517555237630482 3.891887928292647
259 22 1 0.0 3.6548948632189555 8.679165340710338 4.312243795291237
260 22 1 0.0 3.5857906238034825 8.674189707594724 4.792835607349859
261 22 1 0.0 4.086216480704683 7.999183523538183 3.515473643543822
262 22 1 0.0 4.217709264821234 8.160166356664748 3.9648655993960493
263 22 1 0.0 4.033062026456204 8.06807377657834 4.362623396285956
264 22 1 0.0 4.03736228203658 8.112189617504624 4.852421927970977
265 23 5 8.861242189860825 3.588576857821981 9.828748138903682 2.130374322084984
266 23 6 -8.861242189860825 3.4118992199865623 9.88081460149049 2.537444049397304
267 23 3 0.0 3.4831188052614923 9.992844566681411 3.023094274896641
268 23 3 0.0 3.9092302663897107 9.991725399227139 3.0319253817938594
269 23 1 0.0 3.4075423300055845 10.135925978149086 3.55951526042064
270 23 2 0.0 3.4122217721349783 9.845885056540682 3.91072632028214
271 23 1 0.0 3.386033974404092 10.081770801628462 4.302841591690756
272 23 1 0.0 3.3873379453847736 10.103635818969222 4.787907425701204
273 23 1 0.0 4.105940321615618 9.81808505369578 3.4688985710397104
274 23 1 0.0 4.1134114564796045 10.09184556396325 3.8814010801021483
275 23 1 0.0 4.095772663682375 9.958414124670467 4.308802337618348
276 23 1 0.0 4.109859824904408 10.067946763705379 4.788042834795126
277 24 5 8.861242189860825 4.115566578655059 11.436213761161213 2.185662687699997
278 24 6 -8.861242189860825 4.267487545574183 11.397194466127866 2.60402757814492
279 24 3 0.0 4.167753283956886 11.297571633708813 3.087357126461001
280 24 3 0.0 3.741909213253714 11.294124378157019 3.0701768422445426
281 24 1 0.0 4.211723431934793 11.169942142138225 3.6311483608501383
282 24 2 0.0 4.182770485855536 11.469323762105095 3.9732407672178844
283 24 1 0.0 4.18717090052928 11.244462024200114 4.372615411799277
284 24 1 0.0 4.156388057273583 11.23573788831025 4.857120260755355
285 24 1 0.0 3.5171625468862 11.477314353578812 3.48936862699774
286 24 1 0.0 3.4870843983872377 11.2147671296766 3.908084777898305
287 24 1 0.0 3.477246683717936 11.35992333190482 4.3319005483154545
288 24 1 0.0 3.4349034458621297 11.263267319330062 4.812246222492424
289 25 5 8.861242189860825 5.2240765196864025 0.592941827751148 1.9348645867203054
290 25 6 -8.861242189860825 5.244791685879373 0.48713358908476795 2.3684625175865044
291 25 3 0.0 5.104824832643602 0.5908528910466566 2.8408296103764066
292 25 3 0.0 4.925154441780669 0.9720208652299214 2.776956733551948
293 25 1 0.0 4.998058755103787 0.5600718978957702 3.3899972557977613
294 25 2 0.0 5.252726298886795 0.7491221374312923 3.7169518260827212
295 25 1 0.0 5.043463064758547 0.6973800352175868 4.121444008032083
296 25 1 0.0 5.014785758009111 0.7766253939681297 4.59963479405998
297 25 1 0.0 4.991573631615976 1.2985042602853447 3.1626878154180904
298 25 1 0.0 4.733398810312118 1.2644829769803425 3.58381400642011
299 25 1 0.0 4.854381036326768 1.3816667364307529 3.9990466862986627
300 25 1 0.0 4.740991405297317 1.434450399835729 4.4746767712512945
301 26 5 8.861242189860825 4.85605299088648 2.083399534016279 2.042928858159196
302 26 6 -8.861242189860825 4.714653070818596 2.079174345844992 2.466744711474343
303 26 3 0.0 4.810757998809866 2.180964637414906 2.950357845407732
304 26 3 0.0 5.227109047788303 2.267165115353565 2.92083666813874
305 26 1 0.0 4.762730367845768 2.280555186476287 3.4996361326464105
306 26 2 0.0 4.860964769239915 1.9818187640112024 3.8291833890917157
307 26 1 0.0 4.827860263334664 2.1889404041596188 4.236721104436518
308 26 1 0.0 4.873845124047702 2.188231058390182 4.720098319519795
309 26 1 0.0 5.497824409594003 2.117782420121364 3.326039563970558
310 26 1 0.0 5.4919926306645985 2.367915036457124 3.7533083545701222
311 26 1 0.0 5.544804423287749 2.2141609574008827 4.170869737678059
312 26 1 0.0 5.585087228257053 2.3020465695411607 4.6530737568048455
313 27 5 8.861242189860825 5.014912433976159 4.173959998227709 1.9913131076328694
314 27 6 -8.861242189860825 5.23377498358921 4.172079898452269 2.3808350155318254
315 27 3 0.0 5.251923207762592 4.018926107676746 2.8600986614360493
316 27 3 0.0 4.8575685364996835 3.8614671343886546 2.8967221958617304
317 27 1 0.0 5.421929759915551 3.88904642961868 3.377940924179081
318 27 2 0.0 5.342605009596223 4.139797744716071 3.7498632331615305
319 27 1 0.0 5.488020287111555 3.9123081615338355 4.120248381576224
320 27 1 0.0 5.537878300060648 3.8687428737293628 4.601273211383546
321 27 1 0.0 4.650577856430424 3.9289905152272464 3.3575766576471304
322 27 1 0.0 4.780487042069517 3.652928651974133 3.747541279074094
323 27 1 0.0 4.785927400040425 3.7631309871543746 4.181836983353432
324 27 1 0.0 4.855517156992134 3.6337900395558087 4.651193443052454
325 28 5 8.861242189860825 5.762120929517459 5.045136760257355 1.8539228607314617
326 28 6 -8.861242189860825 5.751883353628292 4.876966874134749 2.267741357868741
327 28 3 0.0 5.587643509979056 4.918246834397069 2.7418724817087448
328 28 3 0.0 5.428046275978411 5.3130812818600095 2.7249994178013495
329 28 1 0.0 5.4462815789793595 4.813871523770378 3.273900833045256
330 28 2 0.0 5.688012636705884 4.940890676839591 3.638492484676402
331 28 1 0.0 5.452428007149606 4.84176279944702 4.018960377931453
332 28 1 0.0 5.397811755653902 4.852494163301104 4.501319731059669
333 28 1 0.0 5.484094422970267 5.576780485613266 3.1575646946112155
334 28 1 0.0 5.199441714232736 5.495191811574879 3.554395991887416
335 28 1 0.0 5.299491854634537 5.545078501969084 3.988317872479544
336 28 1 0.0 5.1594626386768585 5.534230047787054 4.459636693427351
337 29 5 8.861242189860825 5.405631539205912 6.86630991580118 1.8683307501600461
338 29 6 -8.861242189860825 5.490030514719407 7.082104227605153 2.250353386998304
339 29 3 0.0 5.509640303131798 7.068963304506023 2.753266755575332
340 29 3 0.0 5.318129568853656 6.694024423343584 2.819559231306377
341 29 1 0.0 5.61715438172577 7.1828475937637695 3.291228333380452
342 29 2 0.0 5.321950647447868 7.370737630085429 3.58285640383074
343 29 1 0.0 5.504456727309898 7.373085002781657 4.003294618331138
344 29 1 0.0 5.474997284418189 7.45960718963979 4.480174786773565
345 29 1 0.0 5.032509834993505 6.680144699657344 3.2414835188781748
346 29 1 0.0 5.231711550485364 6.640852327202905 3.693073754415736
347 29 1 0.0 5.07822246863276 6.797893366454711 4.083670893002636
348 29 1 0.0 5.121674455037375 6.835092801232375 4.572133202898915
349 30 5 8.861242189860825 5.3393565898046695 7.9535322994962705 1.86009445935182
350 30 6 -8.861242189860825 5.435530211944986 7.85444590516702 2.285022909793507
351 30 3 0.0 5.295600324925924 7.865116191278226 2.768535945468975
352 30 3 0.0 4.956760830443482 8.121615207357088 2.736189848036595
353 30 1 0.0 5.252148797358951 7.769410576028917 3.3188848962193833
354 30 2 0.0 5.41246360097557 8.043506263275102 3.6454818342477995
355 30 1 0.0 5.278226232379374 7.886752537091076 4.054738318322584
356 30 1 0.0 5.248462596912839 7.927110325604223 4.537702103256843
357 30 1 0.0 4.891113689396672 8.428163027594566 3.138073251927511
358 30 1 0.0 4.706540229092246 8.263865514645778 3.567139586904937
359 30 1 0.0 4.787547089502569 8.409333042034456 3.983149199740269
360 30 1 0.0 4.694815257207654 8.3870991767384 4.465615534081555
361 31 5 8.861242189860825 4.891281678852376 9.718909157778285 1.9421610896359183
362 31 6 -8.861242189860825 4.760152396023418 9.684782908879061 2.367921794084279
363 31 3 0.0 4.814522908081809 9.835472947364128 2.8452219550677498
364 31 3 0.0 5.174548871796301 10.060108614978473 2.8055944321000634
365 31 1 0.0 4.734590176144676 9.936779905283277 3.390455140294457
366 31 2 0.0 4.930896208903893 9.706330828337679 3.7308255361757534
367 31 1 0.0 4.827424412384986 9.907088828239631 4.129663955034795
368 31 1 0.0 4.870633771930566 9.944334176587416 4.611861402064531
369 31 1 0.0 5.4802845971632825 10.033070313253264 3.2125170046087166
370 31 1 0.0 5.387339294349218 10.284497883427164 3.628815338093393
371 31 1 0.0 5.490419768515796 10.177890781697673 4.051658397201554
372 31 1 0.0 5.4973412479187385 10.296022843835425 4.529009641336781
373 32 5 8.861242189860825 5.373624055050995 10.851944586377847 1.9103482138942471
374 32 6 -8.861242189860825 5.5974698019243165 10.956945932434373 2.282503377857581
375 32 3 0.0 5.621487339806998 10.9425596672955 2.7851914294406455
376 32 3 0.0 5.227340957799 10.80354308659523 2.8686973461774645
377 32 1 0.0 5.797889805463316 10.960414769064247 3.3166939534999638
378 32 2 0.0 5.723821451513894 11.304863605237069 3.6054217148211487
379 32 1 0.0 5.873556739621299 11.188190177351325 4.022613428878661
380 32 1 0.0 5.929509726385216 11.279413777599482 4.49623369943076
381 32 1 0.0 5.026416248431073 10.997286509955714 3.295176103694053
382 32 1 0.0 5.160807166783878 10.839456180886083 3.7448288843047477
383 32 1 0.0 5.172034425742178 11.0657027615789 4.131446711507023
384 32 1 0.0 5.247406553920341 11.07117321440586 4.617405987269153
385 33 5 8.861242189860825 6.381627638389218 0.7194541887444086 2.1396680335113802
386 33 6 -8.861242189860825 6.324359280389836 0.48623792403023935 2.5164467167942304
387 33 3 0.0 6.338060349842927 0.4770868246849656 3.019644115467538
388 33 3 0.0 6.53076523843833 0.8507132165662354 3.0897751605963735
389 33 1 0.0 6.267319088066456 0.3385929111273204 3.557925340683491
390 33 2 0.0 6.582603079559668 0.14114308227310207 3.820802520652921
391 33 1 0.0 6.428414316303238 0.11845653222670721 4.251840126077212
392 33 1 0.0 6.490086132458961 0.011393524391123178 4.721417321108162
393 33 1 0.0 6.843636523316725 0.8490093256100018 3.4921432003275013
394 33 1 0.0 6.674547692772501 0.8663801795046959 3.9571874731027115
395 33 1 0.0 6.854770514635824 0.6939392050083911 4.3294384042283465
396 33 1 0.0 6.844096653923676 0.6348869393416369 4.817563592962356
397 34 5 8.861242189860825 6.652158612128311 2.47320369342971 2.0687469227788733
398 34 6 -8.861242189860825 6.780005767972212 2.2824987889220956 2.452046298294801
399 34 3 0.0 6.733367806801009 2.2561615213804354 2.952656259113802
400 34 3 0.0 6.495795737451649 2.6039707801641536 3.017759635823686
401 34 1 0.0 6.753103248772286 2.0901132004351686 3.487417921045249
402 34 2 0.0 7.0455605593225865 2.247064330189335 3.7993953342175932
403 34 1 0.0 6.937535216011495 2.0735960403981863 4.2096654272013705
404 34 1 0.0 7.003027840553007 2.0423076963369478 4.689769997377965
405 34 1 0.0 6.600875891905278 2.846857219949422 3.453369234032171
406 34 1 0.0 6.446816089363412 2.6781482730797452 3.892643434626462
407 34 1 0.0 6.63848259213435 2.7233983750371835 4.295139758731311
408 34 1 0.0 6.624933218265584 2.6521680445854208 4.781565452698015
409 35 5 8.861242189860825 6.664437087812176 3.4064546463787213 2.104772734565245
410 35 6 -8.861242189860825 6.423217051146131 3.462578592746023 2.4766526394895716
411 35 3 0.0 6.414204431811181 3.5753802884968295 2.9672376311917588
412 35 3 0.0 6.832828524927766 3.568154176873256 3.0469362526526482
413 35 1 0.0 6.2524667104010625 3.7215344855530956 3.4833882175385416
414 35 2 0.0 6.1942809632866505 3.432767479943914 3.8308401958886096
415 35 1 0.0 6.106648493128804 3.6704661410019264 4.21281161924738
416 35 1 0.0 6.027464985676892 3.694118136278481 4.691287530777869
417 35 1 0.0 6.951410933970385 3.3933275151483233 3.5107953197826163
418 35 1 0.0 6.894129376146199 3.6684877406966523 3.91842827751579
419 35 1 0.0 6.803571643207396 3.536918476837804 4.33708772950767
420 35 1 0.0 6.739261632966937 3.6480224703297415 4.811837586245414
421 36 5 8.861242189860825 6.617908848999918 5.266903011498256 2.1017971224293572
422 36 6 -8.861242189860825 6.410509058357674 5.275874302442163 2.4974440735257692
423 36 3 0.0 6.44761460185423 5.2743879066331205 2.9995397349532436
424 36 3 0.0 6.861724446764261 5.180951632546791 3.03739362937773