Lipid soup setup

4400 atoms
1408 bonds
1024 angles
0 dihedrals
0 impropers

6 atom types
2 bond types
3 angle types
0 dihedral types
0 improper types

0 8.344527130346739 xlo xhi
0 8.344527130346739 ylo yhi
0 21.063374999999994 zlo zhi

Masses

1 1
2 1
3 1
4 1
5 1
6 1

Atoms

1 1 5 8.861242189860825 0.41406722958571024 0.538690089935874 7.325468085932634
2 1 6 -8.861242189860825 0.5502040575504069 0.35367854736204907 7.708703209998393
3 1 3 0.0 0.5052838676117536 0.3256685627263297 8.20937945394407
4 1 3 0.0 0.2534791491079922 0.6632930361205382 8.274604579426285
5 1 1 0.0 0.5325491324357232 0.16085623993446663 8.744192571977143
6 1 2 0.0 0.818561706267345 0.33003161663885217 9.055755312821216
7 1 1 0.0 0.7183434926914772 0.15241176067899143 9.466230364430839
8 1 1 0.0 0.7856390735385441 0.12412417232997203 9.946271779093923
9 1 1 0.0 0.34883437990760896 0.9105711357642214 8.709980629455083
10 1 1 0.0 0.2024567102625428 0.73579989024641 9.149511679996795
11 1 1 0.0 0.39253242173718184 0.7892106857816787 9.55176212655617
12 1 1 0.0 0.382529092907834 0.7177205018284813 10.038235546457157
13 2 5 8.861242189860825 0.4966267552180158 1.742218869489819 7.660631983647518
14 2 6 -8.861242189860825 0.34608211686333945 1.5839317510581041 8.050392380728567
15 2 3 0.0 0.3290698653957863 1.6280412672908802 8.551634854819385
16 2 3 0.0 0.6294192179693501 1.9257794707055576 8.604478463001332
17 2 1 0.0 0.18817627481170446 1.581488545681685 9.091924969362793
18 2 2 0.0 0.40689768940143434 1.3247177593395838 9.39806962150661
19 2 1 0.0 0.2309337948373985 1.4016248552838062 9.814247802050406
20 2 1 0.0 0.2289240051499472 1.3344735947228212 10.295137926297478
21 2 1 0.0 0.9024751876097561 1.8697304574347786 9.03119889735857
22 2 1 0.0 0.7237472264627455 1.9929423500612686 9.476209122230424
23 2 1 0.0 0.8173852280760796 1.8153203226234667 9.876795256479054
24 2 1 0.0 0.7618494999060964 1.8185808205675547 10.365438739306033
25 3 5 8.861242189860825 0.27610403593523225 2.4283972115351773 7.413968542869911
26 3 6 -8.861242189860825 0.4144647892012539 2.5891875337431403 7.807204402592104
27 3 3 0.0 0.49812844491978325 2.507211197047179 8.296856684204975
28 3 3 0.0 0.30697439136791493 2.128353548796155 8.33657101992948
29 3 1 0.0 0.6767601749228811 2.5455274349595047 8.8265302993479
30 3 2 0.0 0.4264555216790916 2.694236451543122 9.176855934873435
31 3 1 0.0 0.6614276896624863 2.6375133760946046 9.566282236684584
32 3 1 0.0 0.695709174516483 2.6582337913444563 10.05018727575316
33 3 1 0.0 0.07762263683869358 2.059292591290651 8.786481833742295
34 3 1 0.0 0.3320570308734604 1.9569208435731729 9.198722199575503
35 3 1 0.0 0.23414478792986354 2.060341242308338 9.623580204956983
36 3 1 0.0 0.3409062839406136 2.0300064042537835 10.102693011954713
37 4 5 8.861242189860825 0.6855899944838262 3.7985408563481773 7.345551019355284
38 4 6 -8.861242189860825 0.8635929566720347 3.787893179054072 7.7552255725703905
39 4 3 0.0 0.8325351248888715 3.624915074424516 8.23057032372607
40 4 3 0.0 0.43624940747234264 3.4682033858641215 8.223549274668928
41 4 1 0.0 0.9486478719375453 3.48385522601218 8.760241463933772
42 4 2 0.0 0.8322176613153232 3.72724910128971 9.127254092445357
43 4 1 0.0 0.9387454731940912 3.491703671853587 9.50574114311623
44 4 1 0.0 0.9392283681926904 3.438136958929732 9.988337264864878
45 4 1 0.0 0.18345729510344755 3.527065299768397 8.662209515126753
46 4 1 0.0 0.2724855995253445 3.242615568193151 9.057584357573008
47 4 1 0.0 0.2337935641204354 3.3439024979502934 9.492361076344968
48 4 1 0.0 0.2549574493688475 3.2047438403267674 9.963587411802893
49 5 5 8.861242189860825 0.32068250302832074 4.4620028665785405 7.687860102237593
50 5 6 -8.861242189860825 0.28708726922312056 4.636334445722626 8.097874160423697
51 5 3 0.0 0.45628128909010623 4.649405032265985 8.571880096424113
52 5 3 0.0 0.7123056000900745 4.308791814851437 8.562692790554207
53 5 1 0.0 0.5657928506840252 4.798564806824001 9.100737494180153
54 5 2 0.0 0.3648892232291103 4.621699616662564 9.469317579018913
55 5 1 0.0 0.5668332391566248 4.7866952615908325 9.846249035842611
56 5 1 0.0 0.6222312417173197 4.80119423671344 10.32842066885368
57 5 1 0.0 0.726032167158583 4.049295679037295 9.001172801953771
58 5 1 0.0 0.9799029494566189 4.210366307614278 9.394574420310974
59 5 1 0.0 0.8959772161567565 4.146084453499622 9.830018131312958
60 5 1 0.0 1.0283373656714279 4.203202698410634 10.300215534727982
61 6 5 8.861242189860825 0.8400325773560998 5.44461751013442 7.601302525686247
62 6 6 -8.861242189860825 0.8222375938647839 5.684603566688183 7.977761950264583
63 6 3 0.0 0.7585411112558949 5.692186774949363 8.47712588269332
64 6 3 0.0 0.6225935071493711 5.2924080671751215 8.534965765453398
65 6 1 0.0 0.7535699565071847 5.841126490209414 9.017240515404698
66 6 2 0.0 0.3866488959958583 5.985354480834829 9.245411644228065
67 6 1 0.0 0.4926686442747786 6.033353320682836 9.688737930281107
68 6 1 0.0 0.36935780636892324 6.1297433902110745 10.148381307693617
69 6 1 0.0 0.27602277494708144 5.244074305726272 8.9055652239364
70 6 1 0.0 0.3998276061081932 5.255007034357011 9.38484780660212
71 6 1 0.0 0.1589879290772348 5.396579656141421 9.735191000710739
72 6 1 0.0 0.112663135399927 5.457327682551121 10.221021209773095
73 7 5 8.861242189860825 0.17934012781887623 6.942290496886664 7.355656238111709
74 7 6 -8.861242189860825 0.03208183112914412 7.070237009478996 7.757621847465336
75 7 3 0.0 0.12001968516010075 7.111921541541117 8.251593929237334
76 7 3 0.0 0.4764753985284624 6.8797287671092935 8.277595048412286
77 7 1 0.0 0.09812642379880063 7.25782258774633 8.792116951368138
78 7 2 0.0 8.266742966052545 7.001728948012273 9.125233079226984
79 7 1 0.0 0.001441082034644381 7.202892817673489 9.529384943560828
80 7 1 0.0 8.326614573615384 7.206773734757454 10.014543698812123
81 7 1 0.0 0.5188437408705253 6.6148525867683015 8.710996613012682
82 7 1 0.0 0.645399807440542 6.828998543370073 9.139113449993319
83 7 1 0.0 0.5301904343628419 6.714364626572585 9.556693114733147
84 7 1 0.0 0.569254201152064 6.78510630376929 10.041808501513577
85 8 5 8.861242189860825 1.0023107592388194 7.428005637006376 7.570694711426415
86 8 6 -8.861242189860825 1.101435478005037 7.367316305796479 8.002114185185246
87 8 3 0.0 0.9679052149403492 7.42731506394379 8.483828729102726
88 8 3 0.0 0.6349140397127051 7.687976613111957 8.430700089976456
89 8 1 0.0 0.9291172052468581 7.38538195913516 9.041205327692362
90 8 2 0.0 1.100042235126844 7.685139233409145 9.338568830219973
91 8 1 0.0 0.9672639488758961 7.571333295310656 9.762243713486903
92 8 1 0.0 0.9445625241001241 7.6580703352028365 10.239454331423863
93 8 1 0.0 0.5816842899388825 8.03282192430317 8.802237017658445
94 8 1 0.0 0.3986575974160166 7.91464667816604 9.246865846959286
95 8 1 0.0 0.4883553149347107 8.096863727599683 9.646288151415547
96 8 1 0.0 0.40120602750626816 8.122838013976896 10.129607548302742
97 9 5 8.861242189860825 1.6182492208792096 0.9996311803264841 7.718458879637566
98 9 6 -8.861242189860825 1.430150518601564 0.9242538627401213 8.116665867680824
99 9 3 0.0 1.4860440375367543 0.8879295376083065 8.61570047760255
100 9 3 0.0 1.9116535454541324 0.8932521706334853 8.637573626384842
101 9 1 0.0 1.393077387093618 0.8629979554167522 9.16766713034983
102 9 2 0.0 1.3977819203122963 0.4816299569328861 9.416727683337925
103 9 1 0.0 1.3549421917832227 0.5893182452016562 9.860180343479636
104 9 1 0.0 1.343677505623654 0.4656416619183298 10.329590454407139
105 9 1 0.0 2.1026647673473775 0.6014726749111594 9.00928698709413
106 9 1 0.0 2.0918277235059666 0.739941963615691 9.484542465113384
107 9 1 0.0 2.067685440297813 0.48484863906364506 9.852144773131162
108 9 1 0.0 2.0667212059408753 0.44684169091909615 10.34247307478663
109 10 5 8.861242189860825 1.6954060425550093 1.9243367652914614 7.739557130750462
110 10 6 -8.861242189860825 1.6119689462795852 2.0958128967786283 8.143618827062863
111 10 3 0.0 1.5637083404469483 2.0189410462150224 8.638836674550776
112 10 3 0.0 1.56586644928253 1.5927585146900733 8.642579758691625
113 10 1 0.0 1.5265354477134947 2.0884490514203624 9.19356037233953
114 10 2 0.0 1.139460065266669 2.0758772837512782 9.433371633368802
115 10 1 0.0 1.237077985782715 2.098977277792808 9.880606922033357
116 10 1 0.0 1.1025978073921212 2.091095886526655 10.347106233865244
117 10 1 0.0 1.264340987679637 1.388173876572292 8.998976876236501
118 10 1 0.0 1.391792250648297 1.3777217862160773 9.47731345668561
119 10 1 0.0 1.1283798446001225 1.3879994371170523 9.839660231421341
120 10 1 0.0 1.0789940831462117 1.3683157165875526 10.328578321668804
121 11 5 8.861242189860825 1.5557167736819728 2.2692135690027055 7.424805056731394
122 11 6 -8.861242189860825 1.6184435322922217 2.103827184770556 7.835102954357498
123 11 3 0.0 1.6013638977224312 2.1776249201609974 8.332839093581057
124 11 3 0.0 1.5382149899355435 2.599099175475338 8.33751732424987
125 11 1 0.0 1.587752187563357 2.103873998997174 8.888093171102565
126 11 2 0.0 1.9408339217597121 2.166517847330133 9.168991514276858
127 11 1 0.0 1.7996419605039413 2.121662476928422 9.602736943509647
128 11 1 0.0 1.8803161568400188 2.139862760176145 10.081202267627406
129 11 1 0.0 1.7671876470381276 2.8375912689806975 8.725440547552795
130 11 1 0.0 1.5885024490504422 2.821166390043174 9.186917283903457
131 11 1 0.0 1.8098937476299137 2.8414955601943794 9.57596680348133
132 11 1 0.0 1.802737802653178 2.858961372874943 10.067404530053468
133 12 5 8.861242189860825 1.1409619399638216 3.631538280120103 7.556605488371181
134 12 6 -8.861242189860825 1.061716573668034 3.718031330241427 7.987732837692574
135 12 3 0.0 1.2377147226836809 3.737732573970431 8.459024251250646
136 12 3 0.0 1.6122354705476765 3.5428904415100466 8.400535182807651
137 12 1 0.0 1.3057070345436546 3.8464898608065283 9.004441949641718
138 12 2 0.0 1.2203076044199739 3.5531071757832264 9.342270869981881
139 12 1 0.0 1.3562218089346776 3.735802729887205 9.740054649288224
140 12 1 0.0 1.4290993389778255 3.707320789534509 10.219268888784963
141 12 1 0.0 1.7600665931043307 3.25733400327384 8.796003087103827
142 12 1 0.0 1.9456211380063664 3.4563636281530807 9.209664390717661
143 12 1 0.0 1.9227370798395946 3.304454229033284 9.63059997399662
144 12 1 0.0 2.0466319264640767 3.3484427088714037 10.104501210417164
145 13 5 8.861242189860825 1.37439439690226 4.715795225291757 7.5177589566683265
146 13 6 -8.861242189860825 1.5723781738297116 4.563497840117062 7.888217588196902
147 13 3 0.0 1.5494034319228625 4.49020996407368 8.385791836339159
148 13 3 0.0 1.2000458893492345 4.718375277280923 8.472625675282295
149 13 1 0.0 1.6410840390259605 4.310564463259831 8.908528603698006
150 13 2 0.0 1.8596240820375267 4.546038879199718 9.231463412898567
151 13 1 0.0 1.833126491106611 4.319315335592605 9.62892609543185
152 13 1 0.0 1.9154908543017424 4.284888911860513 10.10620963345968
153 13 1 0.0 1.215253755227342 4.955103558869707 8.923757391141834
154 13 1 0.0 1.144912179931818 4.713655156647864 9.350270798516481
155 13 1 0.0 1.3138580560704893 4.802290865589448 9.755718591660896
156 13 1 0.0 1.3381030489037489 4.700826842036591 10.236327095025612
157 14 5 8.861242189860825 1.1397030535821395 5.8825754791137665 7.672857790142822
158 14 6 -8.861242189860825 1.0290260979854562 5.8771654747246265 8.105700729884123
159 14 3 0.0 1.1781440894442903 5.910941261222855 8.585390322042093
160 14 3 0.0 1.600063698032419 5.894783400884954 8.52731291053136
161 14 1 0.0 1.1916534141491164 5.972305915536708 9.142151891277244
162 14 2 0.0 1.232718613861863 5.631773633372714 9.441895541972077
163 14 1 0.0 1.27855000562477 5.805365773061211 9.863615264210566
164 14 1 0.0 1.353566350565471 5.752430237222852 10.34041608183269
165 14 1 0.0 1.8499706821725441 5.64986795075217 8.89792632786425
166 14 1 0.0 1.9341757536407822 5.856653209894992 9.339863333964816
167 14 1 0.0 1.9732710619310938 5.659808386822172 9.740501054890633
168 14 1 0.0 2.064890820251792 5.693938464703787 10.222484725701735
169 15 5 8.861242189860825 1.5458872840610443 7.236841434768756 7.544748618545121
170 15 6 -8.861242189860825 1.3468783532317472 7.15268258260928 7.935829684546677
171 15 3 0.0 1.3752545349514882 7.152596280495605 8.438496441770509
172 15 3 0.0 1.792075367717772 7.22923245253455 8.48363521442645
173 15 1 0.0 1.251755046683368 7.141972425132888 8.984908902943358
174 15 2 0.0 1.3017385296850412 6.780361467038305 9.257368089553152
175 15 1 0.0 1.2132571434628487 6.9028673458321 9.690086965395912
176 15 1 0.0 1.191538530425252 6.80409750565333 10.164999023746367
177 15 1 0.0 2.003056432165546 6.993102773305689 8.883036201624375
178 15 1 0.0 1.939044981663351 7.152891378011636 9.347287309142278
179 15 1 0.0 1.9325037787023505 6.917169892544379 9.728311592991023
180 15 1 0.0 1.9057302336300421 6.905582052670984 10.21924560129644
181 16 5 8.861242189860825 1.3690979359816304 8.037433533012523 7.622053990654981
182 16 6 -8.861242189860825 1.3380551591981993 7.784288798410318 7.988913304949012
183 16 3 0.0 1.2829612035004037 7.761235352405838 8.48882557588048
184 16 3 0.0 1.3322344815804688 8.174126657079308 8.582330297055027
185 16 1 0.0 1.1858614870715247 7.58731468649928 9.012519011652094
186 16 2 0.0 1.5077745785207648 7.492285317938788 9.320473915200841
187 16 1 0.0 1.310178614010341 7.405036966517329 9.72473352428997
188 16 1 0.0 1.3364340831283417 7.306075765416886 10.199376520304906
189 16 1 0.0 1.568789357400358 8.258270138642965 9.025898836042073
190 16 1 0.0 1.3394799667052497 8.202842264158999 9.461219302928361
191 16 1 0.0 1.511536581523313 8.08386880826597 9.85748783438113
192 16 1 0.0 1.4519399857756832 8.006322272358238 10.339465097126476
193 17 5 8.861242189860825 2.7431191497777965 0.5243209635114555 7.655186465118779
194 17 6 -8.861242189860825 2.718169720199058 0.35557268044711027 8.068143133618108
195 17 3 0.0 2.6417361596716527 0.43680216380684633 8.559100123397439
196 17 3 0.0 2.648187584099037 0.8629570345151936 8.559889796782684
197 17 1 0.0 2.5363185869254203 0.3725569113715766 9.105626655714076
198 17 2 0.0 2.8506234958466576 0.3799066795619308 9.435252575645583
199 17 1 0.0 2.642930550204042 0.3636154534001561 9.843517817660995
200 17 1 0.0 2.655614439593891 0.3738225105707218 10.328804926063581
201 17 1 0.0 2.854610763848369 1.0652554320687817 8.979718586591511
202 17 1 0.0 2.610962111292449 1.0834455572948298 9.410373214190951
203 17 1 0.0 2.7742321722774044 1.0717712787703595 9.827498506323206
204 17 1 0.0 2.699202704772185 1.0957368339122309 10.312950391098738
205 18 5 8.861242189860825 2.5082305357702914 1.4583234587846192 7.393950186800593
206 18 6 -8.861242189860825 2.4139709318740667 1.61294802127694 7.802408310576971
207 18 3 0.0 2.490396381102597 1.5823563742997324 8.299099749802984
208 18 3 0.0 2.7099986607458737 1.2173213289519431 8.312308562507372
209 18 1 0.0 2.5109848035976055 1.690305738120049 8.848512726843191
210 18 2 0.0 2.22779438080581 1.516364490243159 9.160029128788844
211 18 1 0.0 2.3690985039060024 1.6383260815121827 9.578646838169941
212 18 1 0.0 2.332910338512417 1.6208752703615417 10.062542000910295
213 18 1 0.0 2.615401212225253 0.9346460411759736 8.725754312221987
214 18 1 0.0 2.8039411632578357 1.0462756655967316 9.169770605433373
215 18 1 0.0 2.633023290010889 0.968012266356612 9.576524624311661
216 18 1 0.0 2.678360248549291 0.9852932497751127 10.065925512196092
217 19 5 8.861242189860825 2.562554863246654 2.2448743069680974 7.660955964506289
218 19 6 -8.861242189860825 2.5179023948658674 2.125336673075851 8.089148185690279
219 19 3 0.0 2.589154048185681 2.2393402371000426 8.574334204907593
220 19 3 0.0 2.8390294449580677 2.5815377026053206 8.528362485565678
221 19 1 0.0 2.5634365242057915 2.2525568161676524 9.133883575944967
222 19 2 0.0 2.8767120722029604 2.077313934680425 9.414317535140816
223 19 1 0.0 2.772531499308821 2.188209441187717 9.846672558733005
224 19 1 0.0 2.8733309226381047 2.1924830106296325 10.321635563090808
225 19 1 0.0 3.1936379282144127 2.628176936363715 8.891500185371115
226 19 1 0.0 3.084392059891899 2.7882150344175547 9.347144895915017
227 19 1 0.0 3.281201406047768 2.686325173392747 9.736595083250396
228 19 1 0.0 3.31974999202951 2.752982738566626 10.222329657666702
229 20 5 8.861242189860825 2.2703850952520424 3.4793352608562267 7.533638055018298
230 20 6 -8.861242189860825 2.4261006948632646 3.276399306825891 7.899973035235924
231 20 3 0.0 2.4106737558034017 3.22783596283871 8.400854952584709
232 20 3 0.0 2.1687526804104658 3.5658402100858977 8.495075653140548
233 20 1 0.0 2.4670972597438574 3.0401637897155367 8.92576171694247
234 20 2 0.0 2.773908074769436 3.192028842778218 9.226259589475273
235 20 1 0.0 2.6954664914012643 2.998587248536439 9.634315393469477
236 20 1 0.0 2.7908051765996706 2.94907093766214 10.107841858104686
237 20 1 0.0 2.2939312143026056 3.793120060368903 8.933784654473856
238 20 1 0.0 2.1711981641430467 3.601931209851654 9.373719168529405
239 20 1 0.0 2.3857754584519197 3.635631005575794 9.765647503132493
240 20 1 0.0 2.403641638114072 3.5437499192323383 10.248457990649198
241 21 5 8.861242189860825 2.465020425766314 5.181566047581117 7.465364345809217
242 21 6 -8.861242189860825 2.566150159367999 5.313131185435698 7.880207760382103
243 21 3 0.0 2.6109796034152013 5.1940374010438255 8.367327946189066
244 21 3 0.0 2.426907386910277 4.809681557520594 8.361145474987781
245 21 1 0.0 2.7440344998270665 5.193439810663686 8.911595899551003
246 21 2 0.0 2.4618308551077965 5.309045609784415 9.249961447548948
247 21 1 0.0 2.6650666653558313 5.225952343356896 9.652295868229919
248 21 1 0.0 2.658559692296363 5.20873682251373 10.137507088000838
249 21 1 0.0 2.1628684024171982 4.700716594072675 8.783284592994601
250 21 1 0.0 2.3847643305471364 4.570679104850295 9.206381985207033
251 21 1 0.0 2.2493514799795635 4.638091582267456 9.628170828965567
252 21 1 0.0 2.3167497191322624 4.571740908968959 10.11079114222584
253 22 5 8.861242189860825 2.8260428854148527 5.884291785533782 7.648986631207639
254 22 6 -8.861242189860825 2.675120119966997 6.035000225415431 8.041594517207837
255 22 3 0.0 2.717873079871648 6.037974716859293 8.543234249261639
256 22 3 0.0 2.997171076128177 5.719470407541015 8.590115509082816
257 22 1 0.0 2.677236646878676 6.169039578410822 9.08646739443074
258 22 2 0.0 2.4066453599681323 5.958928311867656 9.386681406553516
259 22 1 0.0 2.4918826242358527 6.120538414947512 9.807037273552105
260 22 1 0.0 2.422778384820379 6.115562781831898 10.287629085610726
261 22 1 0.0 2.9232042417215793 5.440556597775356 9.01026712180469
262 22 1 0.0 3.054697025838131 5.601539430901921 9.459659077656918
263 22 1 0.0 2.870049787473101 5.509446850815513 9.857416874546823
264 22 1 0.0 2.8743500430534765 5.553562691741797 10.347215406231845
265 23 5 8.861242189860825 2.425564618838878 6.804916317547615 7.625167800345851
266 23 6 -8.861242189860825 2.248886981003459 6.856982780134421 8.032237527658172
267 23 3 0.0 2.320106566278389 6.969012745325343 8.51788775315751
268 23 3 0.0 2.7462180274066075 6.96789357787107 8.526718860054727
269 23 1 0.0 2.2445300910224812 7.112094156793017 9.054308738681508
270 23 2 0.0 2.249209533151875 6.822053235184615 9.405519798543008
271 23 1 0.0 2.223021735420989 7.057938980272394 9.797635069951623
272 23 1 0.0 2.2243257064016704 7.079803997613154 10.282700903962072
273 23 1 0.0 2.9429280826325144 6.794253232339712 8.963692049300578
274 23 1 0.0 2.9503992174965012 7.068013742607182 9.376194558363016
275 23 1 0.0 2.932760424699272 6.934582303314399 9.803595815879216
276 23 1 0.0 2.946847585921305 7.044114942349311 10.282836313055993
277 24 5 8.861242189860825 2.9525543396719565 7.947177044211903 7.680456165960864
278 24 6 -8.861242189860825 3.10447530659108 7.908157749178557 8.098821056405788
279 24 3 0.0 3.004741044973783 7.808534916759504 8.582150604721868
280 24 3 0.0 2.578896974270611 7.805087661207709 8.56497032050541
281 24 1 0.0 3.04871119295169 7.680905425188916 9.125941839111006
282 24 2 0.0 3.0197582468724327 7.980287045155786 9.468034245478751
283 24 1 0.0 3.0241586615461773 7.755425307250805 9.867408890060144
284 24 1 0.0 2.9933758182904806 7.746701171360942 10.351913739016222
285 24 1 0.0 2.354150307903097 7.988277636629502 8.984162105258607
286 24 1 0.0 2.324072159404135 7.725730412727291 9.402878256159171
287 24 1 0.0 2.3142344447348333 7.870886614955511 9.826694026576321
288 24 1 0.0 2.271891206879027 7.774230602380753 10.307039700753291
289 25 5 8.861242189860825 3.595859385110057 0.3603393799545273 7.429658064981172
290 25 6 -8.861242189860825 3.616574551303028 0.2545311412881473 7.863255995847371
291 25 3 0.0 3.476607698067257 0.3582504432500359 8.335623088637274
292 25 3 0.0 3.2969373072043235 0.7394184174333007 8.271750211812815
293 25 1 0.0 3.3698416205274424 0.3274694500991495 8.884790734058628
294 25 2 0.0 3.62450916431045 0.5165196896346717 9.211745304343589
295 25 1 0.0 3.415245930182202 0.4647775874209662 9.616237486292949
296 25 1 0.0 3.3865686234327668 0.544022946171509 10.094428272320847
297 25 1 0.0 3.3633564970396312 1.065901812488724 8.657481293678957
298 25 1 0.0 3.1051816757357726 1.0318805291837219 9.078607484680976
299 25 1 0.0 3.226163901750424 1.1490642886341322 9.49384016455953
300 25 1 0.0 3.112774270720972 1.2018479520391083 9.969470249512161
301 26 5 8.861242189860825 3.2278358563101355 1.3855921906264175 7.537722336420064
302 26 6 -8.861242189860825 3.086435936242251 1.3813670024551303 7.961538189735211
303 26 3 0.0 3.182540864233521 1.4831572940250446 8.4451513236686
304 26 3 0.0 3.5988919132119586 1.5693577719637033 8.415630146399607
305 26 1 0.0 3.1345132332694243 1.5827478430864252 8.994429610907279
306 26 2 0.0 3.232747634663571 1.2840114206213407 9.323976867352583
307 26 1 0.0 3.1996431287583196 1.491133060769757 9.731514582697386
308 26 1 0.0 3.2456279894713584 1.4904237150003203 10.214891797780663
309 26 1 0.0 3.8696072750176587 1.4199750767315025 8.820833042231426
310 26 1 0.0 3.8637754960882544 1.6701076930672623 9.24810183283099
311 26 1 0.0 3.9165872887114044 1.5163536140110212 9.665663215938926
312 26 1 0.0 3.956870093680709 1.604239226151299 10.147867235065712
313 27 5 8.861242189860825 3.386695299399814 3.0109477592446066 7.4861065858937375
314 27 6 -8.861242189860825 3.605557849012864 3.0090676594691663 7.875628493792694
315 27 3 0.0 3.623706073186247 2.855913868693643 8.354892139696918
316 27 3 0.0 3.2293514019233385 2.6984548954055514 8.3915156741226
317 27 1 0.0 3.793712625339207 2.726034190635577 8.87273440243995
318 27 2 0.0 3.7143878750198787 2.976785505732968 9.2446567114224
319 27 1 0.0 3.85980315253521 2.7492959225507323 9.615041859837092
320 27 1 0.0 3.909661165484304 2.7057306347462595 10.096066689644415
321 27 1 0.0 3.0223607218540787 2.765978276244143 8.852370135907998
322 27 1 0.0 3.152269907493172 2.48991641299103 9.242334757334962
323 27 1 0.0 3.1577102654640794 2.6001187481712713 9.6766304616143
324 27 1 0.0 3.227300022415789 2.4707778005727055 10.145986921313323
325 28 5 8.861242189860825 4.133903794941114 3.416919625681011 7.34871633899233
326 28 6 -8.861242189860825 4.123666219051947 3.2487497395584044 7.762534836129609
327 28 3 0.0 3.9594263754027113 3.2900296998207237 8.236665959969613
328 28 3 0.0 3.7998291414020655 3.684864147283665 8.219792896062216
329 28 1 0.0 3.818064444403015 3.1856543891940334 8.768694311306124
330 28 2 0.0 4.059795502129539 3.3126735422632465 9.13328596293727
331 28 1 0.0 3.82421087257326 3.2135456648706753 9.51375385619232
332 28 1 0.0 3.7695946210775566 3.2242770287247597 9.996113209320537
333 28 1 0.0 3.855877288393922 3.9485633510369222 8.652358172872084
334 28 1 0.0 3.5712245796563913 3.8669746769985336 9.049189470148285
335 28 1 0.0 3.6712747200581926 3.9168613673927397 9.483111350740412
336 28 1 0.0 3.5312455041005135 3.9060129132107093 9.954430171688218
337 29 5 8.861242189860825 3.7774144046295683 4.772887885631594 7.363124228420914
338 29 6 -8.861242189860825 3.8618133801430616 4.988682197435566 7.745146865259172
339 29 3 0.0 3.881423168555453 4.975541274336437 8.248060233836199
340 29 3 0.0 3.6899124342773115 4.600602393173998 8.314352709567245
341 29 1 0.0 3.9889372471494258 5.089425563594183 8.78602181164132
342 29 2 0.0 3.6937335128715234 5.277315599915843 9.077649882091608
343 29 1 0.0 3.876239592733553 5.279662972612071 9.498088096592005
344 29 1 0.0 3.8467801498418446 5.366185159470204 9.974968265034434
345 29 1 0.0 3.40429270041716 4.586722669487758 8.736276997139042
346 29 1 0.0 3.603494415909019 4.547430297033319 9.187867232676604
347 29 1 0.0 3.450005334056416 4.704471336285125 9.578464371263504
348 29 1 0.0 3.493457320461031 4.741670771062789 10.066926681159782
349 30 5 8.861242189860825 3.7111394552283246 5.394905373733444 7.354887937612688
350 30 6 -8.861242189860825 3.807313077368641 5.295818979404193 7.779816388054375
351 30 3 0.0 3.6673831903495784 5.306489265515399 8.263329423729843
352 30 3 0.0 3.3285436958671366 5.562988281594261 8.230983326297464
353 30 1 0.0 3.6239316627826064 5.21078365026609 8.81367837448025
354 30 2 0.0 3.784246466399226 5.484879337512276 9.140275312508667
355 30 1 0.0 3.650009097803029 5.328125611328249 9.549531796583452
356 30 1 0.0 3.620245462336494 5.368483399841396 10.032495581517711
357 30 1 0.0 3.262896554820327 5.8695361018317405 8.632866730188379
358 30 1 0.0 3.0783230945159006 5.70523858888295 9.061933065165805
359 30 1 0.0 3.159329954926224 5.850706116271629 9.477942678001137
360 30 1 0.0 3.0665981226313086 5.828472250975574 9.960409012342422
361 31 5 8.861242189860825 3.2630645442760318 6.695077336422217 7.436954567896786
362 31 6 -8.861242189860825 3.1319352614470732 6.660951087522993 7.862715272345146
363 31 3 0.0 3.1863057735054645 6.811641126008059 8.340015433328617
364 31 3 0.0 3.5463317372199556 7.036276793622405 8.30038791036093
365 31 1 0.0 3.1063730415683315 6.912948083927209 8.885248618555323
366 31 2 0.0 3.302679074327548 6.682499006981612 9.22561901443662
367 31 1 0.0 3.1992072778086413 6.8832570068835635 9.624457433295662
368 31 1 0.0 3.242416637354222 6.920502355231349 10.106654880325397
369 31 1 0.0 3.8520674625869384 7.009238491897197 8.707310482869584
370 31 1 0.0 3.7591221597728737 7.260666062071095 9.12360881635426
371 31 1 0.0 3.862202633939452 7.154058960341605 9.546451875462422
372 31 1 0.0 3.869124113342394 7.272191022479357 10.023803119597648
373 32 5 8.861242189860825 3.7454069204746507 7.362907869428537 7.405141692155115
374 32 6 -8.861242189860825 3.9692526673479716 7.467909215485062 7.777296856118449
375 32 3 0.0 3.993270205230653 7.45352295034619 8.279984907701513
376 32 3 0.0 3.599123823222655 7.31450636964592 8.363490824438333
377 32 1 0.0 4.169672670886971 7.471378052114936 8.811487431760831
378 32 2 0.0 4.095604316937549 7.8158268882877575 9.100215193082017
379 32 1 0.0 4.245339605044954 7.699153460402014 9.517406907139529
380 32 1 0.0 4.301292591808871 7.790377060650171 9.991027177691628
381 32 1 0.0 3.398199113854728 7.508249793006405 8.78996958195492
382 32 1 0.0 3.532590032207533 7.350419463936773 9.239622362565616
383 32 1 0.0 3.543817291165833 7.576666044629589 9.626240189767891
384 32 1 0.0 3.619189419343997 7.58213649745655 10.112199465530022
385 33 5 8.861242189860825 4.288205608219632 0.48685174094778794 7.634461511772248
386 33 6 -8.861242189860825 4.23093725022025 0.2536354762336187 8.011240195055098
387 33 3 0.0 4.24463831967334 0.244484376888345 8.514437593728406
388 33 3 0.0 4.437343208268744 0.6181107687696148 8.58456863885724
389 33 1 0.0 4.17389705789687 0.10599046333069981 9.052718818944358
390 33 2 0.0 4.489181049390082 8.253067764823221 9.315595998913787
391 33 1 0.0 4.334992286133652 8.230381214776825 9.74663360433808
392 33 1 0.0 4.396664102289375 8.123318206941242 10.21621079936903
393 33 1 0.0 4.750214493147139 0.6164068778133811 8.986936678588368
394 33 1 0.0 4.581125662602915 0.6337777317080753 9.451980951363579
395 33 1 0.0 4.761348484466238 0.4613367572117705 9.824231882489213
396 33 1 0.0 4.750674623754089 0.4022844915450162 10.312357071223223
397 34 5 8.861242189860825 4.558736581958724 1.7753963500398482 7.563540401039742
398 34 6 -8.861242189860825 4.686583737802626 1.5846914455322336 7.946839776555668
399 34 3 0.0 4.639945776631423 1.5583541779905739 8.44744973737467
400 34 3 0.0 4.402373707282063 1.906163436774292 8.512553114084554
401 34 1 0.0 4.6596812186026995 1.392305857045307 8.982211399306117
402 34 2 0.0 4.952138529153 1.5492569867994734 9.294188812478462
403 34 1 0.0 4.844113185841909 1.3757886970083244 9.70445890546224
404 34 1 0.0 4.909605810383421 1.3445003529470858 10.184563475638832
405 34 1 0.0 4.507453861735692 2.1490498765595607 8.948162712293039
406 34 1 0.0 4.353394059193826 1.9803409296898835 9.38743691288733
407 34 1 0.0 4.545060561964764 2.0255910316473216 9.789933236992178
408 34 1 0.0 4.5315111880959975 1.9543607011955588 10.276358930958883
409 35 5 8.861242189860825 4.571015057642589 2.2434424073956185 7.599566212826113
410 35 6 -8.861242189860825 4.329795020976545 2.29956635376292 7.971446117750439
411 35 3 0.0 4.320782401641595 2.4123680495137263 8.462031109452626
412 35 3 0.0 4.73940649475818 2.4051419378901526 8.541729730913517
413 35 1 0.0 4.159044680231476 2.5585222465699924 8.97818169579941
414 35 2 0.0 4.100858933117064 2.269755240960811 9.325633674149477
415 35 1 0.0 4.013226462959218 2.507453902018823 9.707605097508248
416 35 1 0.0 3.9340429555073055 2.5311058972953777 10.186081009038737
417 35 1 0.0 4.857988903800798 2.23031527616522 9.005588798043483
418 35 1 0.0 4.800707345976613 2.505475501713549 9.413221755776657
419 35 1 0.0 4.710149613037809 2.3739062378547007 9.831881207768538
420 35 1 0.0 4.64583960279735 2.4850102313466382 10.30663106450628
421 36 5 8.861242189860825 4.524486818830332 3.6386858769219117 7.596590600690225
422 36 6 -8.861242189860825 4.317087028188087 3.6476571678658187 7.992237551786636
423 36 3 0.0 4.354192571684644 3.6461707720567764 8.49433321321411
424 36 3 0.0 4.768302416594675 3.552734497970447 8.532187107638597
425 36 1 0.0 4.248599084201891 3.6958712952779535 9.042340002426615