Lipid soup setup

4400 atoms
1408 bonds
1024 angles
0 dihedrals
0 impropers

6 atom types
2 bond types
3 angle types
0 dihedral types
0 improper types

0 10.966857209349046 xlo xhi
0 10.966857209349046 ylo yhi
0 12.194585526315787 zlo zhi

Masses

1 1
2 1
3 1
4 1
5 1
6 1

Atoms

1 1 5 8.861242189860825 0.5779628595233544 0.7025857198735181 2.8910733490905303
2 1 6 -8.861242189860825 0.7140996874880511 0.5175741772996932 3.274308473156289
3 1 3 0.0 0.6691794975493978 0.4895641926639739 3.774984717101966
4 1 3 0.0 0.41737477904563636 0.8271886660581824 3.840209842584181
5 1 1 0.0 0.6964447623733674 0.3247518698721108 4.309797835135038
6 1 2 0.0 0.9824573362049892 0.49392724657649634 4.6213605759791125
7 1 1 0.0 0.8822391226291214 0.3163073906166356 5.031835627588736
8 1 1 0.0 0.9495347034761883 0.2880198022676162 5.511877042251818
9 1 1 0.0 0.5127300098452532 1.0744667657018656 4.2755858926129795
10 1 1 0.0 0.366352340200187 0.8996955201840542 4.715116943154692
11 1 1 0.0 0.556428051674826 0.9531063157193229 5.117367389714065
12 1 1 0.0 0.5464247228454782 0.8816161317661255 5.603840809615053
13 2 5 8.861242189860825 0.66052238515566 2.2339057593027514 3.2262372468054146
14 2 6 -8.861242189860825 0.5099777468009836 2.0756186408710366 3.615997643886464
15 2 3 0.0 0.4929654953334305 2.1197281571038125 4.117240117977282
16 2 3 0.0 0.7933148479069942 2.41746636051849 4.170083726159229
17 2 1 0.0 0.35207190474934863 2.0731754354946177 4.65753023252069
18 2 2 0.0 0.5707933193390785 1.8164046491525163 4.963674884664505
19 2 1 0.0 0.3948294247750427 1.8933117450967387 5.379853065208303
20 2 1 0.0 0.3928196350875914 1.8261604845357537 5.860743189455375
21 2 1 0.0 1.0663708175474003 2.3614173472477114 4.596804160516466
22 2 1 0.0 0.8876428564003896 2.4846292398742014 5.041814385388321
23 2 1 0.0 0.9812808580137238 2.307007212436399 5.442400519636951
24 2 1 0.0 0.9257451298437406 2.310267710380487 5.9310440024639295
25 3 5 8.861242189860825 0.4399996658728764 3.2478753612233984 2.979573806027809
26 3 6 -8.861242189860825 0.578360419138898 3.4086656834313613 3.3728096657500015
27 3 3 0.0 0.6620240748574274 3.3266893467354 3.862461947362873
28 3 3 0.0 0.4708700213055591 2.947831698484376 3.902176283087377
29 3 1 0.0 0.8406558048605253 3.365005584647726 4.392135562505796
30 3 2 0.0 0.5903511516167358 3.513714601231343 4.742461198031333
31 3 1 0.0 0.8253233196001305 3.4569915257828256 5.131887499842481
32 3 1 0.0 0.8596048044541271 3.4777119410326773 5.615792538911058
33 3 1 0.0 0.24151826677633775 2.878770740978872 4.352087096900192
34 3 1 0.0 0.49595266081110456 2.776398993261394 4.764327462733402
35 3 1 0.0 0.3980404178675077 2.879819391996559 5.189185468114881
36 3 1 0.0 0.5048019138782578 2.8494845539420046 5.66829827511261
37 4 5 8.861242189860825 0.8494856244214704 4.945810265911686 2.911156282513181
38 4 6 -8.861242189860825 1.027488586609679 4.935162588617581 3.3208308357282874
39 4 3 0.0 0.9964307548265157 4.772184483988025 3.7961755868839675
40 4 3 0.0 0.6001450374099868 4.615472795427631 3.7891545378268257
41 4 1 0.0 1.1125435018751895 4.631124635575689 4.325846727091669
42 4 2 0.0 0.9961132912529673 4.874518510853219 4.692859355603254
43 4 1 0.0 1.1026411031317354 4.638973081417096 5.071346406274128
44 4 1 0.0 1.1031239981303345 4.585406368493241 5.553942528022776
45 4 1 0.0 0.3473529250410917 4.674334709331906 4.2278147782846505
46 4 1 0.0 0.4363812294629887 4.38988497775666 4.623189620730905
47 4 1 0.0 0.39768919405807956 4.491171907513802 5.057966339502866
48 4 1 0.0 0.4188530793064917 4.352013249890277 5.529192674960789
49 5 5 8.861242189860825 0.4845781329659649 5.937063536017338 3.2534653653954893
50 5 6 -8.861242189860825 0.4509828991607647 6.111395115161423 3.663479423581592
51 5 3 0.0 0.6201769190277504 6.124465701704783 4.13748535958201
52 5 3 0.0 0.8762012300277187 5.783852484290235 4.128298053712104
53 5 1 0.0 0.7296884806216694 6.273625476262799 4.666342757338049
54 5 2 0.0 0.5287848531667545 6.096760286101361 5.034922842176809
55 5 1 0.0 0.7307288690942689 6.261755931029629 5.411854299000506
56 5 1 0.0 0.7861268716549639 6.2762549061522375 5.8940259320115755
57 5 1 0.0 0.8899277970962272 5.5243563484760925 4.5667780651116665
58 5 1 0.0 1.143798579394263 5.685426977053075 4.96017968346887
59 5 1 0.0 1.0598728460944007 5.62114512293842 5.395623394470854
60 5 1 0.0 1.1922329956090723 5.678263367849432 5.8658207978858785
61 6 5 8.861242189860825 1.003928207293744 7.247469439448506 3.1669077888441444
62 6 6 -8.861242189860825 0.9861332238024281 7.487455496002268 3.5433672134224796
63 6 3 0.0 0.922436741193539 7.4950387042634485 4.042731145851217
64 6 3 0.0 0.7864891370870153 7.095259996489207 4.100571028611296
65 6 1 0.0 0.9174655864448289 7.6439784195235 4.582845778562594
66 6 2 0.0 0.5505445259335024 7.788206410148915 4.811016907385962
67 6 1 0.0 0.6565642742124228 7.8362052499969215 5.254343193439003
68 6 1 0.0 0.5332534363065674 7.93259531952516 5.713986570851513
69 6 1 0.0 0.4399184048847256 7.046926235040358 4.471170487094296
70 6 1 0.0 0.5637232360458373 7.057858963671097 4.950453069760017
71 6 1 0.0 0.322883559014879 7.199431585455507 5.300796263868635
72 6 1 0.0 0.2765587653375712 7.260179611865206 5.786626472930992
73 7 5 8.861242189860825 0.3432357577565204 9.072933686076038 2.9212615012696066
74 7 6 -8.861242189860825 0.1959774610667883 9.200880198668369 3.3232271106232334
75 7 3 0.0 0.2839153150977449 9.242564730730491 3.8171991923952313
76 7 3 0.0 0.6403710284661066 9.010371956298666 3.843200311570184
77 7 1 0.0 0.2620220537364448 9.388465776935703 4.357722214526035
78 7 2 0.0 0.08611146564344979 9.132372137201648 4.690838342384882
79 7 1 0.0 0.16533671197228855 9.333536006862863 5.094990206718727
80 7 1 0.0 0.14598307320628856 9.337416923946828 5.5801489619700195
81 7 1 0.0 0.6827393708081695 8.745495775957675 4.27660187617058
82 7 1 0.0 0.8092954373781862 8.959641732559446 4.704718713151218
83 7 1 0.0 0.694086064300486 8.845007815761958 5.1222983778910445
84 7 1 0.0 0.7331498310897082 8.915749492958664 5.607413764671475
85 8 5 8.861242189860825 1.1662063891764634 9.886440086071039 3.136299974584311
86 8 6 -8.861242189860825 1.2653311079426812 9.825750754861142 3.5677194483431425
87 8 3 0.0 1.1318008448779935 9.885749513008452 4.049433992260622
88 8 3 0.0 0.7988096696503493 10.14641106217662 3.996305353134353
89 8 1 0.0 1.0930128351845023 9.843816408199823 4.606810590850259
90 8 2 0.0 1.263937865064488 10.143573682473807 4.904174093377869
91 8 1 0.0 1.1311595788135402 10.029767744375318 5.327848976644799
92 8 1 0.0 1.1084581540377683 10.1165047842675 5.805059594581758
93 8 1 0.0 0.7455799198765267 10.491256373367833 4.367842280816341
94 8 1 0.0 0.5625532273536608 10.373081127230702 4.812471110117182
95 8 1 0.0 0.6522509448723548 10.555298176664344 5.211893414573444
96 8 1 0.0 0.5651016574439123 10.581272463041557 5.695212811460639
97 9 5 8.861242189860825 2.109936110692142 1.1635268102641283 3.2840641427954633
98 9 6 -8.861242189860825 1.9218374084144965 1.0881494926777655 3.6822711308387213
99 9 3 0.0 1.9777309273496866 1.0518251675459507 4.181305740760447
100 9 3 0.0 2.4033404352670646 1.0571478005711294 4.203178889542739
101 9 1 0.0 1.8847642769065505 1.0268935853543963 4.733272393507727
102 9 2 0.0 1.8894688101252288 0.6455255868705303 4.982332946495822
103 9 1 0.0 1.8466290815961552 0.7532138751393004 5.425785606637533
104 9 1 0.0 1.8353643954365868 0.629537291855974 5.895195717565036
105 9 1 0.0 2.5943516571603102 0.7653683048488036 4.574892250252027
106 9 1 0.0 2.5835146133188993 0.9038375935533352 5.050147728271281
107 9 1 0.0 2.559372330110745 0.6487442690012892 5.417750036289059
108 9 1 0.0 2.5584080957538076 0.6107373208567404 5.908078337944526
109 10 5 8.861242189860825 2.1870929323679418 2.416023655104394 3.3051623939083594
110 10 6 -8.861242189860825 2.103655836092518 2.587499786591561 3.70922409022076
111 10 3 0.0 2.0553952302598812 2.510627936027955 4.204441937708674
112 10 3 0.0 2.057553339095463 2.084445404503006 4.208185021849522
113 10 1 0.0 2.0182223375264274 2.580135941233295 4.759165635497427
114 10 2 0.0 1.6311469550796018 2.5675641735642105 4.9989768965267
115 10 1 0.0 1.7287648755956477 2.5906641676057403 5.4462121851912535
116 10 1 0.0 1.594284697205054 2.5827827763395876 5.9127114970231425
117 10 1 0.0 1.7560278774925697 1.8798607663852245 4.5645821393944
118 10 1 0.0 1.8834791404612297 1.8694086760290098 5.042918719843509
119 10 1 0.0 1.6200667344130553 1.8796863269299848 5.405265494579238
120 10 1 0.0 1.5706809729591444 1.860002606400485 5.894183584826702
121 11 5 8.861242189860825 2.0474036634949058 3.0886917186909257 2.99041031988929
122 11 6 -8.861242189860825 2.1101304221051542 2.9233053344587763 3.400708217515394
123 11 3 0.0 2.093050787535364 2.9971030698492176 3.898444356738953
124 11 3 0.0 2.029901879748476 3.4185773251635583 3.903122587407765
125 11 1 0.0 2.0794390773762896 2.923352148685394 4.453698434260461
126 11 2 0.0 2.432520811572645 2.985995997018353 4.734596777434754
127 11 1 0.0 2.2913288503168743 2.941140626616642 5.168342206667543
128 11 1 0.0 2.3720030466529516 2.9593409098643653 5.646807530785303
129 11 1 0.0 2.25887453685106 3.6570694186689177 4.291045810710692
130 11 1 0.0 2.080189338863375 3.6406445397313942 4.752522547061353
131 11 1 0.0 2.3015806374428465 3.6609737098825996 5.1415720666392275
132 11 1 0.0 2.2944246924661105 3.678439522563163 5.633009793211364
133 12 5 8.861242189860825 1.6326488297767543 4.778807689683612 3.122210751529079
134 12 6 -8.861242189860825 1.5534034634809668 4.865300739804936 3.5533381008504716
135 12 3 0.0 1.7294016124966136 4.8850019835339396 4.024629514408543
136 12 3 0.0 2.103922360360609 4.690159851073555 3.9661404459655487
137 12 1 0.0 1.7973939243565873 4.993759270370037 4.570047212799615
138 12 2 0.0 1.7119944942329066 4.700376585346736 4.907876133139778
139 12 1 0.0 1.8479086987476103 4.883072139450714 5.305659912446123
140 12 1 0.0 1.9207862287907582 4.854590199098018 5.78487415194286
141 12 1 0.0 2.2517534829172634 4.404603412837349 4.361608350261726
142 12 1 0.0 2.437308027819299 4.603633037716589 4.775269653875558
143 12 1 0.0 2.4144239696525274 4.4517236385967935 5.196205237154518
144 12 1 0.0 2.53831881627701 4.495712118434913 5.6701064735750615
145 13 5 8.861242189860825 1.8660812867151928 6.1908558947305545 3.0833642198262234
146 13 6 -8.861242189860825 2.0640650636426443 6.03855850955586 3.4538228513547993
147 13 3 0.0 2.0410903217357954 5.965270633512477 3.951397099497057
148 13 3 0.0 1.6917327791621672 6.19343594671972 4.038230938440191
149 13 1 0.0 2.132770928838893 5.7856251326986285 4.474133866855903
150 13 2 0.0 2.3513109718504595 6.0210995486385155 4.7970686760564645
151 13 1 0.0 2.3248133809195437 5.794376005031403 5.194531358589748
152 13 1 0.0 2.407177744114675 5.759949581299311 5.671814896617575
153 13 1 0.0 1.7069406450402747 6.430164228308505 4.489362654299732
154 13 1 0.0 1.6365990697447508 6.1887158260866615 4.915876061674378
155 13 1 0.0 1.805544945883422 6.277351535028246 5.321323854818792
156 13 1 0.0 1.8297899387166816 6.175887511475389 5.801932358183509
157 14 5 8.861242189860825 1.6313899433950723 7.685427408427852 3.238463053300718
158 14 6 -8.861242189860825 1.520712987798389 7.680017404038712 3.6713059930420204
159 14 3 0.0 1.669830979257223 7.713793190536941 4.150995585199989
160 14 3 0.0 2.0917505878453517 7.69763533019904 4.092918173689256
161 14 1 0.0 1.6833403039620491 7.775157844850794 4.70775715443514
162 14 2 0.0 1.7244055036747958 7.4346255626868 5.007500805129974
163 14 1 0.0 1.7702368954377028 7.608217702375296 5.429220527368461
164 14 1 0.0 1.8452532403784037 7.555282166536938 5.9060213449905845
165 14 1 0.0 2.341657571985477 7.4527198800662555 4.463531591022145
166 14 1 0.0 2.425862643453715 7.659505139209077 4.905468597122713
167 14 1 0.0 2.4649579517440268 7.462660316136257 5.306106318048529
168 14 1 0.0 2.5565777100647242 7.496790394017872 5.78808998885963
169 15 5 8.861242189860825 2.0375741738739768 9.36748462395813 3.110353881703019
170 15 6 -8.861242189860825 1.8385652430446797 9.283325771798653 3.5014349477045745
171 15 3 0.0 1.8669414247644207 9.283239469684979 4.004101704928407
172 15 3 0.0 2.2837622575307046 9.359875641723923 4.0492404775843465
173 15 1 0.0 1.7434419364963003 9.272615614322262 4.550514166101257
174 15 2 0.0 1.7934254194979737 8.911004656227679 4.82297335271105
175 15 1 0.0 1.704944033275781 9.033510535021474 5.2556922285538095
176 15 1 0.0 1.6832254202381844 8.934740694842704 5.7306042869042635
177 15 1 0.0 2.4947433219784787 9.123745962495063 4.448641464782273
178 15 1 0.0 2.430731871476284 9.28353456720101 4.912892572300176
179 15 1 0.0 2.424190668515283 9.047813081733754 5.293916856148922
180 15 1 0.0 2.397417123442975 9.036225241860357 5.784850864454337
181 16 5 8.861242189860825 1.8607848257945632 10.495867982077185 3.187659253812877
182 16 6 -8.861242189860825 1.829742049011132 10.242723247474979 3.554518568106908
183 16 3 0.0 1.7746480933133364 10.219669801470499 4.054430839038376
184 16 3 0.0 1.8239213713934015 10.632561106143969 4.1479355602129235
185 16 1 0.0 1.6775483768844575 10.045749135563941 4.57812427480999
186 16 2 0.0 1.9994614683336975 9.950719767003449 4.886079178358738
187 16 1 0.0 1.8018655038232738 9.86347141558199 5.290338787447867
188 16 1 0.0 1.8281209729412744 9.764510214481549 5.764981783462802
189 16 1 0.0 2.0604762472132907 10.716704587707627 4.591504099199969
190 16 1 0.0 1.8311668565181825 10.66127671322366 5.026824566086257
191 16 1 0.0 2.003223471336246 10.542303257330632 5.423093097539026
192 16 1 0.0 1.943626875588616 10.4647567214229 5.905070360284373
193 17 5 8.861242189860825 3.5625972994660176 0.6882165934490997 3.2207917282766747
194 17 6 -8.861242189860825 3.537647869887279 0.5194683103847544 3.633748396776004
195 17 3 0.0 3.4612143093598737 0.6006977937444905 4.124705386555336
196 17 3 0.0 3.4676657337872583 1.0268526644528377 4.1254950599405795
197 17 1 0.0 3.3557967366136414 0.5364525413092207 4.671231918871973
198 17 2 0.0 3.6701016455348787 0.543802309499575 5.00085783880348
199 17 1 0.0 3.462408699892263 0.5275110833378003 5.40912308081889
200 17 1 0.0 3.475092589282112 0.537718140508366 5.894410189221478
201 17 1 0.0 3.67408891353659 1.2291510620064259 4.545323849749407
202 17 1 0.0 3.43044026098067 1.247341187232474 4.975978477348848
203 17 1 0.0 3.5937103219656255 1.2356669087080037 5.393103769481102
204 17 1 0.0 3.5186808544604062 1.259632463849875 5.878555654256635
205 18 5 8.861242189860825 3.327708685458512 1.950010348597552 2.9595554499584913
206 18 6 -8.861242189860825 3.2334490815622874 2.1046349110898728 3.368013573734869
207 18 3 0.0 3.3098745307908177 2.074043264112665 3.864705012960882
208 18 3 0.0 3.5294768104340943 1.7090082187648759 3.877913825665269
209 18 1 0.0 3.330462953285826 2.1819926279329818 4.414117990001089
210 18 2 0.0 3.0472725304940305 2.0080513800560915 4.725634391946742
211 18 1 0.0 3.188576653594223 2.1300129713251152 5.144252101327838
212 18 1 0.0 3.1523884882006374 2.1125621601744746 5.6281472640681915
213 18 1 0.0 3.4348793619134734 1.4263329309889063 4.291359575379884
214 18 1 0.0 3.6234193129460563 1.5379625554096643 4.73537586859127
215 18 1 0.0 3.45250143969911 1.4596991561695447 5.142129887469558
216 18 1 0.0 3.4978383982375116 1.4769801395880453 5.631530775353989
217 19 5 8.861242189860825 3.382033012934875 3.064352456656318 3.2265612276641864
218 19 6 -8.861242189860825 3.337380544554088 2.9448148227640716 3.654753448848177
219 19 3 0.0 3.408632197873901 3.0588183867882632 4.139939468065492
220 19 3 0.0 3.6585075946462884 3.401015852293541 4.093967748723576
221 19 1 0.0 3.382914673894012 3.072034965855873 4.699488839102866
222 19 2 0.0 3.696190221891181 2.8967920843686454 4.9799227982987135
223 19 1 0.0 3.5920096489970414 3.0076875908759377 5.4122778218909025
224 19 1 0.0 3.6928090723263254 3.011961160317853 5.887240826248706
225 19 1 0.0 4.013116077902634 3.4476550860519355 4.4571054485290125
226 19 1 0.0 3.9038702095801194 3.6076931841057753 4.912750159072916
227 19 1 0.0 4.100679555735989 3.5058033230809675 5.302200346408293
228 19 1 0.0 4.139228141717731 3.5724608882548465 5.7879349208246005
229 20 5 8.861242189860825 3.089863244940263 4.626604670419736 3.099243318176195
230 20 6 -8.861242189860825 3.2455788445514853 4.4236687163894 3.4655782983938206
231 20 3 0.0 3.2301519054916223 4.375105372402219 3.966460215742606
232 20 3 0.0 2.9882308300986864 4.713109619649407 4.060680916298445
233 20 1 0.0 3.286575409432078 4.187433199279046 4.491366980100367
234 20 2 0.0 3.5933862244576567 4.339298252341727 4.79186485263317
235 20 1 0.0 3.514944641089485 4.145856658099949 5.1999206566273735
236 20 1 0.0 3.6102833262878917 4.09634034722565 5.673447121262583
237 20 1 0.0 3.1134093639908262 4.940389469932412 4.499389917631753
238 20 1 0.0 2.9906763138312673 4.749200619415163 4.939324431687302
239 20 1 0.0 3.2052536081401404 4.782900415139303 5.33125276629039
240 20 1 0.0 3.223119787802293 4.691019328795847 5.814063253807095
241 21 5 8.861242189860825 3.2844985754545344 6.656626717019915 3.0309696089671143
242 21 6 -8.861242189860825 3.3856283090562194 6.788191854874496 3.4458130235399995
243 21 3 0.0 3.4304577531034215 6.669098070482623 3.9329332093469627
244 21 3 0.0 3.2463855365984973 6.284742226959391 3.926750738145677
245 21 1 0.0 3.5635126495152867 6.668500480102484 4.477201162708901
246 21 2 0.0 3.2813090047960167 6.784106279223213 4.815566710706844
247 21 1 0.0 3.4845448150440514 6.701013012795694 5.217901131387816
248 21 1 0.0 3.478037841984583 6.683797491952528 5.703112351158735
249 21 1 0.0 2.9823465521054184 6.175777263511473 4.348889856152498
250 21 1 0.0 3.2042424802353566 6.045739774289093 4.771987248364931
251 21 1 0.0 3.0688296296677837 6.1131522517062535 5.193776092123465
252 21 1 0.0 3.1362278688204825 6.046801578407757 5.676396405383738
253 22 5 8.861242189860825 3.6455210351030733 7.687143714847868 3.214591894365536
254 22 6 -8.861242189860825 3.4945982696552176 7.837852154729517 3.6071997803657334
255 22 3 0.0 3.5373512295598686 7.840826646173379 4.108839512419536
256 22 3 0.0 3.8166492258163975 7.522322336855101 4.155720772240713
257 22 1 0.0 3.4967147965668968 7.971891507724908 4.652072657588636
258 22 2 0.0 3.226123509656353 7.761780241181742 4.952286669711412
259 22 1 0.0 3.311360773924073 7.923390344261597 5.372642536710002
260 22 1 0.0 3.2422565345086 7.918414711145983 5.853234348768623
261 22 1 0.0 3.7426823914098 7.243408527089442 4.575872384962587
262 22 1 0.0 3.874175175526352 7.404391360216007 5.0252643408148145
263 22 1 0.0 3.689527937161321 7.312298780129598 5.423022137704721
264 22 1 0.0 3.693828192741697 7.356414621055882 5.912820669389742
265 23 5 8.861242189860825 3.2450427685270986 8.935559506736988 3.1907730635037486
266 23 6 -8.861242189860825 3.0683651306916797 8.987625969323796 3.5978427908160686
267 23 3 0.0 3.1395847159666097 9.099655934514717 4.083493016315406
268 23 3 0.0 3.565696177094828 9.098536767060445 4.092324123212625
269 23 1 0.0 3.064008240710702 9.242737345982391 4.619914001839405
270 23 2 0.0 3.0686876828400957 8.952696424373988 4.971125061700905
271 23 1 0.0 3.0424998851092093 9.188582169461768 5.36324033310952
272 23 1 0.0 3.043803856089891 9.210447186802527 5.8483061671199685
273 23 1 0.0 3.762406232320735 8.924896421529086 4.529297312458475
274 23 1 0.0 3.769877367184722 9.198656931796556 4.941799821520913
275 23 1 0.0 3.7522385743874924 9.065225492503773 5.369201079037113
276 23 1 0.0 3.7663257356095254 9.174758131538685 5.84844157621389
277 24 5 8.861242189860825 3.7720324893601767 10.405611493276565 3.246061429118762
278 24 6 -8.861242189860825 3.9239534562793 10.366592198243218 3.6644263195636855
279 24 3 0.0 3.824219194662003 10.266969365824165 4.147755867879766
280 24 3 0.0 3.3983751239588313 10.26352211027237 4.130575583663308
281 24 1 0.0 3.8681893426399103 10.139339874253578 4.6915471022689035
282 24 2 0.0 3.839236396560653 10.438721494220447 5.03363950863665
283 24 1 0.0 3.8436368112343975 10.213859756315466 5.433014153218042
284 24 1 0.0 3.812853967978701 10.205135620425603 5.91751900217412
285 24 1 0.0 3.173628457591317 10.446712085694164 4.549767368416505
286 24 1 0.0 3.143550309092355 10.184164861791952 4.96848351931707
287 24 1 0.0 3.1337125944230535 10.329321064020172 5.392299289734219
288 24 1 0.0 3.091369356567247 10.232665051445414 5.872644963911188
289 25 5 8.861242189860825 4.743128794673567 0.5242350098921715 2.99526332813907
290 25 6 -8.861242189860825 4.763843960866538 0.41842677122579147 3.428861259005269
291 25 3 0.0 4.623877107630767 0.5221460731876801 3.9012283517951714
292 25 3 0.0 4.444206716767834 0.9033140473709449 3.8373554749707126
293 25 1 0.0 4.517111030090952 0.4913650800367937 4.450395997216526
294 25 2 0.0 4.771778573873959 0.6804153195723158 4.777350567501486
295 25 1 0.0 4.562515339745712 0.6286732173586104 5.181842749450848
296 25 1 0.0 4.533838032996276 0.7079185761091532 5.660033535478745
297 25 1 0.0 4.510625906603141 1.2297974424263682 4.223086556836855
298 25 1 0.0 4.252451085299283 1.1957761591213663 4.644212747838875
299 25 1 0.0 4.373433311313933 1.3129599185717766 5.059445427717427
300 25 1 0.0 4.260043680284482 1.3657435819767525 5.535075512670058
301 26 5 8.861242189860825 4.3751052658736445 1.8772790804393502 3.103327599577961
302 26 6 -8.861242189860825 4.2337053458057605 1.873053892268063 3.5271434528931076
303 26 3 0.0 4.32981027379703 1.9748441838379773 4.0107565868264965
304 26 3 0.0 4.7461613227754675 2.061044661776636 3.9812354095575047
305 26 1 0.0 4.281782642832933 2.0744347328993578 4.560034874065176
306 26 2 0.0 4.38001704422708 1.7756983104342734 4.8895821305104805
307 26 1 0.0 4.346912538321829 1.9828199505826898 5.297119845855283
308 26 1 0.0 4.392897399034867 1.982110604813253 5.7804970609385595
309 26 1 0.0 5.016876684581168 1.9116619665444352 4.386438305389323
310 26 1 0.0 5.011044905651763 2.1617945828801948 4.813707095988887
311 26 1 0.0 5.063856698274914 2.008040503823954 5.231268479096824
312 26 1 0.0 5.104139503244218 2.095926115964232 5.713472498223609
313 27 5 8.861242189860825 4.533964708963324 3.830425908932827 3.0517118490516335
314 27 6 -8.861242189860825 4.7528272585763744 3.828545809157387 3.4412337569505898
315 27 3 0.0 4.770975482749757 3.6753920183818636 3.9204974028548136
316 27 3 0.0 4.376620811486848 3.517933045093772 3.9571209372804947
317 27 1 0.0 4.940982034902716 3.5455123403237976 4.438339665597845
318 27 2 0.0 4.861657284583388 3.796263655421188 4.810261974580294
319 27 1 0.0 5.0070725620987195 3.568774072238953 5.180647122994988
320 27 1 0.0 5.056930575047813 3.52520878443448 5.66167195280231
321 27 1 0.0 4.1696301314175885 3.585456425932364 4.417975399065895
322 27 1 0.0 4.299539317056682 3.3093945626792505 4.807940020492858
323 27 1 0.0 4.30497967502759 3.419596897859492 5.242235724772197
324 27 1 0.0 4.374569431979299 3.290255950260926 5.711592184471218
325 28 5 8.861242189860825 5.281173204504624 4.56418903524452 2.9143216021502267
326 28 6 -8.861242189860825 5.270935628615457 4.396019149121914 3.3281400992875056
327 28 3 0.0 5.106695784966221 4.4372991093842336 3.8022712231275095
328 28 3 0.0 4.947098550965576 4.832133556847174 3.7853981592201142
329 28 1 0.0 4.965333853966524 4.332923798757543 4.334299574464021
330 28 2 0.0 5.207064911693049 4.459942951826756 4.698891226095167
331 28 1 0.0 4.9714802821367705 4.360815074434185 5.079359119350218
332 28 1 0.0 4.916864030641067 4.371546438288269 5.561718472478434
333 28 1 0.0 5.0031466979574315 5.095832760600431 4.21796343602998
334 28 1 0.0 4.718493989219901 5.0142440865620435 4.614794733306181
335 28 1 0.0 4.818544129621702 5.064130776956249 5.048716613898309
336 28 1 0.0 4.678514913664023 5.053282322774219 5.520035434846116
337 29 5 8.861242189860825 4.924683814193077 6.2479485550703915 2.928729491578811
338 29 6 -8.861242189860825 5.0090827897065715 6.463742866874364 3.310752128417069
339 29 3 0.0 5.028692578118962 6.450601943775235 3.813665496994097
340 29 3 0.0 4.8371818438408205 6.075663062612795 3.879957972725142
341 29 1 0.0 5.136206656712935 6.564486233032981 4.351627074799217
342 29 2 0.0 4.841002922435033 6.752376269354641 4.643255145249505
343 29 1 0.0 5.023509002297063 6.754723642050869 5.0636933597499025
344 29 1 0.0 4.9940495594053536 6.841245828909001 5.54057352819233
345 29 1 0.0 4.55156210998067 6.061783338926555 4.3018822602969395
346 29 1 0.0 4.750763825472529 6.022490966472117 4.753472495834501
347 29 1 0.0 4.597274743619925 6.179532005723923 5.144069634421401
348 29 1 0.0 4.64072673002454 6.2167314405015865 5.632531944317679
349 30 5 8.861242189860825 4.858408864791834 7.1977573030475295 2.9204932007705846
350 30 6 -8.861242189860825 4.954582486932151 7.098670908718279 3.3454216512122716
351 30 3 0.0 4.814652599913089 7.109341194829485 3.82893468688774
352 30 3 0.0 4.475813105430647 7.365840210908346 3.79658858945536
353 30 1 0.0 4.771201072346116 7.013635579580176 4.379283637638148
354 30 2 0.0 4.931515875962736 7.287731266826362 4.705880575666565
355 30 1 0.0 4.7972785073665385 7.130977540642335 5.115137059741349
356 30 1 0.0 4.767514871900004 7.1713353291554816 5.598100844675608
357 30 1 0.0 4.410165964383837 7.672388031145826 4.198471993346276
358 30 1 0.0 4.225592504079411 7.508090518197036 4.627538328323702
359 30 1 0.0 4.306599364489734 7.653558045585715 5.043547941159034
360 30 1 0.0 4.2138675321948185 7.63132418028966 5.526014275500319
361 31 5 8.861242189860825 4.410333953839541 8.82572052561159 3.002559831054683
362 31 6 -8.861242189860825 4.279204671010582 8.791594276712367 3.428320535503044
363 31 3 0.0 4.333575183068974 8.942284315197433 3.9056206964865146
364 31 3 0.0 4.6936011467834655 9.166919982811779 3.865993173518828
365 31 1 0.0 4.2536424511318405 9.043591273116583 4.450853881713222
366 31 2 0.0 4.449948483891058 8.813142196170984 4.791224277594519
367 31 1 0.0 4.346476687372151 9.013900196072937 5.19006269645356
368 31 1 0.0 4.389686046917731 9.051145544420722 5.672260143483296
369 31 1 0.0 4.999336872150447 9.13988168108657 4.272915746027482
370 31 1 0.0 4.906391569336383 9.39130925126047 4.6892140795121575
371 31 1 0.0 5.009472043502961 9.284702149530979 5.112057138620319
372 31 1 0.0 5.016393522905903 9.402834211668731 5.589408382755546
373 32 5 8.861242189860825 4.89267633003816 9.8213423184932 2.970746955313012
374 32 6 -8.861242189860825 5.116522076911481 9.926343664549725 3.3429021192763457
375 32 3 0.0 5.140539614794163 9.911957399410852 3.8455901708594102
376 32 3 0.0 4.746393232786165 9.772940818710582 3.9290960875962293
377 32 1 0.0 5.316942080450481 9.9298125011796 4.377092694918728
378 32 2 0.0 5.242873726501059 10.27426133735242 4.6658204562399135
379 32 1 0.0 5.392609014608464 10.157587909466677 5.083012170297426
380 32 1 0.0 5.448562001372381 10.248811509714834 5.5566324408495245
381 32 1 0.0 4.545468523418238 9.966684242071066 4.355574845112818
382 32 1 0.0 4.679859441771043 9.808853913001435 4.8052276257235125
383 32 1 0.0 4.691086700729343 10.035100493694252 5.191845452925787
384 32 1 0.0 4.766458828907506 10.040570946521212 5.677804728687919
385 33 5 8.861242189860825 5.76326627765843 0.6507473708854321 3.2000667749301446
386 33 6 -8.861242189860825 5.7059979196590485 0.4175311061712629 3.576845458212995
387 33 3 0.0 5.719698989112139 0.4083800068259892 4.080042856886303
388 33 3 0.0 5.9124038777075425 0.782006398707259 4.150173902015138
389 33 1 0.0 5.648957727335668 0.269886093268344 4.618324082102256
390 33 2 0.0 5.96424171882888 0.07243626441412565 4.881201262071685
391 33 1 0.0 5.81005295557245 0.04974971436773079 5.312238867495977
392 33 1 0.0 5.871724771728173 10.909543915881192 5.781816062526927
393 33 1 0.0 6.2252751625859375 0.7803025077510253 4.552541941746266
394 33 1 0.0 6.0561863320417135 0.7976733616457194 5.017586214521476
395 33 1 0.0 6.236409153905036 0.6252323871494146 5.38983714564711
396 33 1 0.0 6.225735293192888 0.5661801214826604 5.877962334381121
397 34 5 8.861242189860825 6.033797251397522 2.2670832398527807 3.129145664197638
398 34 6 -8.861242189860825 6.161644407241424 2.0763783353451664 3.512445039713566
399 34 3 0.0 6.115006446070221 2.050041067803506 4.013055000532567
400 34 3 0.0 5.877434376720861 2.3978503265872244 4.078158377242451
401 34 1 0.0 6.134741888041497 1.8839927468582396 4.5478166624640135
402 34 2 0.0 6.427199198591797 2.0409438766124057 4.859794075636358
403 34 1 0.0 6.319173855280707 1.867475586821257 5.270064168620135
404 34 1 0.0 6.384666479822219 1.8361872427600183 5.750168738796729
405 34 1 0.0 5.982514531174489 2.640736766372493 4.513767975450936
406 34 1 0.0 5.828454728632623 2.472027819502816 4.953042176045227
407 34 1 0.0 6.020121231403562 2.5172779214602543 5.355538500150076
408 34 1 0.0 6.006571857534795 2.4460475910084916 5.8419641941167795
409 35 5 8.861242189860825 6.046075727081388 3.0629205570838387 3.16517147598401
410 35 6 -8.861242189860825 5.804855690415343 3.1190445034511405 3.5370513809083364
411 35 3 0.0 5.795843071080394 3.231846199201947 4.027636372610523
412 35 3 0.0 6.214467164196979 3.2246200875783733 4.1073349940714134
413 35 1 0.0 5.634105349670275 3.378000396258213 4.543786958957306
414 35 2 0.0 5.575919602555863 3.0892333906490315 4.891238937307374
415 35 1 0.0 5.488287132398017 3.3269320517070438 5.273210360666145
416 35 1 0.0 5.409103624946105 3.3505840469835984 5.7516862721966335
417 35 1 0.0 6.333049573239597 3.0497934258534407 4.571194061201381
418 35 1 0.0 6.275768015415411 3.3249536514017697 4.978827018934554
419 35 1 0.0 6.185210282476608 3.1933843875429213 5.3974864709264345
420 35 1 0.0 6.120900272236149 3.304488381034859 5.872236327664178
421 36 5 8.861242189860825 5.99954748826913 4.785955286485421 3.1621958638481216
422 36 6 -8.861242189860825 5.792147697626885 4.794926577429328 3.557842814944533
423 36 3 0.0 5.829253241123442 4.793440181620285 4.059938476372008
424 36 3 0.0 6.243363086033472 4.700003907533956 4.097792370796495