Lipid soup setup

2560 atoms
1408 bonds
1024 angles
0 dihedrals
0 impropers

6 atom types
2 bond types
3 angle types
0 dihedral types
0 improper types

0 10.373608390765556 xlo xhi
0 10.373608390765556 ylo yhi
0 7.929741176470587 zlo zhi

Masses

1 1
2 1
3 1
4 1
5 1
6 1

Atoms

1 1 5 8.861242189860825 0.5408848083618862 0.66550766871205 0.75865117416793
2 1 6 -8.861242189860825 0.677021636326583 0.4804961261382251 1.141886298233689
3 1 3 0.0 0.6321014463879296 0.45248614150250577 1.6425625421793664
4 1 3 0.0 0.38029672788416824 0.7901106148967143 1.7077876676615809
5 1 1 0.0 0.6593667112118993 0.2876738187106427 2.177375660212438
6 1 2 0.0 0.9453792850435211 0.4568491954150282 2.4889384010565125
7 1 1 0.0 0.8451610714676533 0.2792293394551675 2.8994134526661353
8 1 1 0.0 0.9124566523147202 0.2509417511061481 3.379454867329218
9 1 1 0.0 0.475651958683785 1.0373887145403975 2.14316371769038
10 1 1 0.0 0.32927428903871886 0.8626174690225861 2.5826947682320918
11 1 1 0.0 0.5193500005133579 0.9160282645578548 2.9849452147914657
12 1 1 0.0 0.50934667168401 0.8445380806046574 3.471418634692453
13 2 5 8.861242189860825 0.6234443339941919 2.122671605818347 1.0938150718828148
14 2 6 -8.861242189860825 0.4728996956395155 1.9643844873866323 1.4835754689638643
15 2 3 0.0 0.45588744417196236 2.008494003619408 1.9848179430546824
16 2 3 0.0 0.7562367967455261 2.3062322070340855 2.0376615512366296
17 2 1 0.0 0.3149938535878805 1.9619412820102131 2.52510805759809
18 2 2 0.0 0.5337152681776104 1.705170495668112 2.831252709741906
19 2 1 0.0 0.35775137361357456 1.7820775916123344 3.2474308902857034
20 2 1 0.0 0.35574158392612326 1.7149263310513494 3.728321014532776
21 2 1 0.0 1.0292927663859321 2.250183193763307 2.464381985593866
22 2 1 0.0 0.8505648052389215 2.373395086389797 2.9093922104657213
23 2 1 0.0 0.9442028068522557 2.195773058951995 3.3099783447143523
24 2 1 0.0 0.8886670786822725 2.1990335568960826 3.7986218275413295
25 3 5 8.861242189860825 0.4029216147114083 3.062485105416058 0.8471516311052085
26 3 6 -8.861242189860825 0.5412823679774299 3.2232754276240208 1.240387490827401
27 3 3 0.0 0.6249460236959593 3.1412990909280594 1.7300397724402727
28 3 3 0.0 0.433791970144091 2.7624414426770354 1.7697541081647765
29 3 1 0.0 0.8035777536990572 3.1796153288403852 2.259713387583196
30 3 2 0.0 0.5532731004552677 3.3283243454240026 2.6100390231087323
31 3 1 0.0 0.7882452684386624 3.271601269975485 2.999465324919881
32 3 1 0.0 0.822526753292659 3.2923216852253367 3.483370363988458
33 3 1 0.0 0.20444021561486964 2.6933804851715313 2.219664921977592
34 3 1 0.0 0.45887460964963644 2.5910087374540534 2.631905287810801
35 3 1 0.0 0.3609623667060396 2.6944291361892185 3.0567632931922812
36 3 1 0.0 0.4677238627167897 2.664094298134664 3.53587610019001
37 4 5 8.861242189860825 0.8124075732600022 4.686263907781409 0.7787341075905809
38 4 6 -8.861242189860825 0.9904105354482108 4.675616230487305 1.1884086608056876
39 4 3 0.0 0.9593527036650475 4.512638125857748 1.6637534119613675
40 4 3 0.0 0.5630669862485187 4.355926437297354 1.6567323629042257
41 4 1 0.0 1.0754654507137213 4.371578277445412 2.193424552169069
42 4 2 0.0 0.9590352400914992 4.614972152722943 2.560437180680654
43 4 1 0.0 1.0655630519702672 4.379426723286819 2.9389242313515282
44 4 1 0.0 1.0660459469688663 4.325860010362964 3.421520353100176
45 4 1 0.0 0.3102748738796236 4.414788351201629 2.09539260336205
46 4 1 0.0 0.39930317830152057 4.130338619626383 2.4907674458083044
47 4 1 0.0 0.36061114289661145 4.2316255493835255 2.9255441645802662
48 4 1 0.0 0.38177502814502356 4.09246689176 3.3967705000381887
49 5 5 8.861242189860825 0.4475000818044968 5.603361075564125 1.12104319047289
50 5 6 -8.861242189860825 0.4139048479992966 5.77769265470821 1.5310572486589926
51 5 3 0.0 0.5830988678662823 5.79076324125157 2.0050631846594102
52 5 3 0.0 0.8391231788662505 5.450150023837022 1.9958758787895043
53 5 1 0.0 0.6926104294602012 5.939923015809586 2.5339205824154503
54 5 2 0.0 0.4917068020052864 5.763057825648149 2.902500667254209
55 5 1 0.0 0.6936508179328008 5.928053470576417 3.279432124077907
56 5 1 0.0 0.7490488204934957 5.942552445699024 3.761603757088976
57 5 1 0.0 0.852849745934759 5.190653888022879 2.434355890189067
58 5 1 0.0 1.106720528232795 5.351724516599862 2.827757508546271
59 5 1 0.0 1.0227947949329326 5.287442662485207 3.263201219548254
60 5 1 0.0 1.1551549444476041 5.344560907396219 3.733398622963279
61 6 5 8.861242189860825 0.9668501561322759 6.8396108766723565 1.0344856139215444
62 6 6 -8.861242189860825 0.94905517264096 7.079596933226119 1.4109450384998794
63 6 3 0.0 0.8853586900320709 7.087180141487299 1.9103089709286167
64 6 3 0.0 0.7494110859255472 6.687401433713058 1.9681488536886955
65 6 1 0.0 0.8803875352833608 7.236119856747351 2.4504236036399942
66 6 2 0.0 0.5134664747720343 7.380347847372765 2.6785947324633628
67 6 1 0.0 0.6194862230509547 7.428346687220772 3.121921018516403
68 6 1 0.0 0.4961753851450993 7.524736756749011 3.581564395928913
69 6 1 0.0 0.4028403537232575 6.6390676722642095 2.3387483121716963
70 6 1 0.0 0.5266451848843692 6.650000400894948 2.8180308948374173
71 6 1 0.0 0.28580550785341086 6.791573022679358 3.1683740889460346
72 6 1 0.0 0.23948071417610306 6.852321049089057 3.6542042980083917
73 7 5 8.861242189860825 0.30615770659505226 8.590919020976953 0.7888393263470062
74 7 6 -8.861242189860825 0.15889940990532017 8.718865533569284 1.1908049357006332
75 7 3 0.0 0.2468372639362768 8.760550065631406 1.6847770174726309
76 7 3 0.0 0.6032929773046385 8.528357291199582 1.7107781366475834
77 7 1 0.0 0.22494400257497668 8.906451111836619 2.2253000396034346
78 7 2 0.0 0.049033414481981674 8.650357472102563 2.558416167462281
79 7 1 0.0 0.12825866081082044 8.851521341763778 2.9625680317961263
80 7 1 0.0 0.10890502204482044 8.855402258847743 3.4477267870474195
81 7 1 0.0 0.6456613196467014 8.26348111085859 2.144179701247979
82 7 1 0.0 0.7722173862167181 8.47762706746036 2.572296538228617
83 7 1 0.0 0.6570080131390179 8.362993150662874 2.989876202968444
84 7 1 0.0 0.6960717799282401 8.43373482785958 3.474991589748875
85 8 5 8.861242189860825 1.1291283380149952 9.330269318649018 1.0038777996617112
86 8 6 -8.861242189860825 1.228253056781213 9.269579987439121 1.4352972734205425
87 8 3 0.0 1.0947227937165254 9.329578745586431 1.9170118173380217
88 8 3 0.0 0.7617316184888812 9.590240294754599 1.8638831782117529
89 8 1 0.0 1.0559347840230342 9.287645640777802 2.474388415927659
90 8 2 0.0 1.2268598139030198 9.587402915051786 2.7717519184552692
91 8 1 0.0 1.0940815276520721 9.473596976953297 3.1954268017221996
92 8 1 0.0 1.0713801028763001 9.560334016845479 3.672637419659158
93 8 1 0.0 0.7085018687150586 9.935085605945812 2.235420105893741
94 8 1 0.0 0.5254751761921926 9.81691035980868 2.680048935194583
95 8 1 0.0 0.6151728937108867 9.999127409242323 3.079471239650844
96 8 1 0.0 0.5280236062824442 10.025101695619536 3.562790636538039
97 9 5 8.861242189860825 1.9987019572077376 1.1264487591026602 1.1516419678728635
98 9 6 -8.861242189860825 1.810603254930092 1.0510714415162974 1.5498489559161217
99 9 3 0.0 1.8664967738652822 1.0147471163844826 2.0488835658378477
100 9 3 0.0 2.2921062817826603 1.0200697494096613 2.0707567146201393
101 9 1 0.0 1.773530123422146 0.9898155341929282 2.6008502185851277
102 9 2 0.0 1.7782346566408245 0.6084475357090622 2.8499107715732226
103 9 1 0.0 1.735394928111751 0.7161358239778323 3.293363431714934
104 9 1 0.0 1.7241302419521825 0.5924592406945058 3.762773542642437
105 9 1 0.0 2.483117503675906 0.7282902536873355 2.4424700753294277
106 9 1 0.0 2.472280459834495 0.866759542391867 2.9177255533486806
107 9 1 0.0 2.448138176626341 0.6116662178398211 3.2853278613664596
108 9 1 0.0 2.447173942269403 0.5736592696952723 3.775656163021927
109 10 5 8.861242189860825 2.0758587788835374 2.3047895016199895 1.1727402189857594
110 10 6 -8.861242189860825 1.9924216826081136 2.4762656331071566 1.57680191529816
111 10 3 0.0 1.9441610767754767 2.3993937825435507 2.072019762786074
112 10 3 0.0 1.9463191856110584 1.9732112510186015 2.0757628469269216
113 10 1 0.0 1.906988184042023 2.468901787748891 2.6267434605748274
114 10 2 0.0 1.5199128015951975 2.456330020079806 2.8665547216041
115 10 1 0.0 1.6175307221112434 2.479430014121336 3.3137900102686535
116 10 1 0.0 1.4830505437206496 2.4715486228551833 3.7802893221005425
117 10 1 0.0 1.6447937240081654 1.7686266129008201 2.4321599644717997
118 10 1 0.0 1.7722449869768253 1.7581745225446055 2.9104965449209086
119 10 1 0.0 1.508832580928651 1.7684521734455805 3.2728433196566384
120 10 1 0.0 1.45944681947474 1.7487684529160807 3.7617614099041017
121 11 5 8.861242189860825 1.9361695100105012 2.903301462883585 0.8579881449666906
122 11 6 -8.861242189860825 1.99889626862075 2.7379150786514357 1.2682860425927944
123 11 3 0.0 1.9818166340509595 2.811712814041877 1.7660221818163535
124 11 3 0.0 1.918667726264072 3.2331870693562177 1.7707004124851653
125 11 1 0.0 1.9682049238918853 2.7379618928780536 2.3212762593378606
126 11 2 0.0 2.3212866580882405 2.8006057412110126 2.6021746025121537
127 11 1 0.0 2.18009469683247 2.7557503708093014 3.0359200317449435
128 11 1 0.0 2.2607688931685472 2.7739506540570247 3.5143853558627027
129 11 1 0.0 2.1476403833666557 3.471679162861577 2.158623635788092
130 11 1 0.0 1.9689551853789706 3.4552542839240536 2.620100372138753
131 11 1 0.0 2.190346483958442 3.475583454075259 3.0091498917166275
132 11 1 0.0 2.183190538981706 3.4930492667558224 3.5005876182887636
133 12 5 8.861242189860825 1.52141467629235 4.519261331553335 0.9897885766064787
134 12 6 -8.861242189860825 1.4421693099965625 4.605754381674659 1.4209159259278712
135 12 3 0.0 1.6181674590122093 4.625455625403663 1.8922073394859433
136 12 3 0.0 1.9926882068762048 4.430613492943278 1.8337182710429483
137 12 1 0.0 1.686159770872183 4.7342129122397605 2.437625037877015
138 12 2 0.0 1.6007603407485023 4.440830227216459 2.7754539582171778
139 12 1 0.0 1.736674545263206 4.623525781320438 3.1732377375235217
140 12 1 0.0 1.8095520753063539 4.595043840967741 3.6524519770202604
141 12 1 0.0 2.140519329432859 4.145057054707072 2.229186175339125
142 12 1 0.0 2.3260738743348948 4.3440866795863124 2.6428474789529575
143 12 1 0.0 2.303189816168123 4.192177280466517 3.0637830622319178
144 12 1 0.0 2.4270846627926055 4.236165760304636 3.5376842986524615
145 13 5 8.861242189860825 1.7548471332307884 5.8571534342773415 0.9509420449036237
146 13 6 -8.861242189860825 1.95283091015824 5.704856049102647 1.3214006764321993
147 13 3 0.0 1.9298561682513908 5.631568173059264 1.8189749245744569
148 13 3 0.0 1.580498625677763 5.859733486266507 1.9058087635175909
149 13 1 0.0 2.021536775354489 5.4519226722454155 2.3417116919333023
150 13 2 0.0 2.240076818366055 5.687397088185302 2.664646501133864
151 13 1 0.0 2.2135792274351394 5.4606735445781895 3.0621091836671477
152 13 1 0.0 2.2959435906302708 5.426247120846098 3.539392721694975
153 13 1 0.0 1.5957064915558703 6.096461767855292 2.3569404793771316
154 13 1 0.0 1.5253649162603464 5.855013365633448 2.783453886751778
155 13 1 0.0 1.6943107923990177 5.943649074575033 3.188901679896192
156 13 1 0.0 1.7185557852322773 5.842185051022176 3.6695101832609094
157 14 5 8.861242189860825 1.520155789910668 7.277568845651703 1.106040878378118
158 14 6 -8.861242189860825 1.4094788343139846 7.272158841262563 1.5388838181194204
159 14 3 0.0 1.5585968257728187 7.3059346277607915 2.0185734102773893
160 14 3 0.0 1.9805164343609474 7.28977676742289 1.9604959987666564
161 14 1 0.0 1.5721061504776448 7.367299282074645 2.57533497951254
162 14 2 0.0 1.6131713501903915 7.026766999910651 2.875078630207373
163 14 1 0.0 1.6590027419532984 7.200359139599147 3.296798352445861
164 14 1 0.0 1.7340190868939993 7.147423603760789 3.7735991700679845
165 14 1 0.0 2.2304234185010725 7.044861317290106 2.331109416099545
166 14 1 0.0 2.314628489969311 7.251646576432928 2.773046422200113
167 14 1 0.0 2.3537237982596224 7.054801753360108 3.173684143125929
168 14 1 0.0 2.44534355658032 7.088931831241723 3.6556678139370304
169 15 5 8.861242189860825 1.9263400203895726 8.885469958859046 0.9779317067804187
170 15 6 -8.861242189860825 1.7273310895602756 8.801311106699568 1.369012772781974
171 15 3 0.0 1.7557072712800166 8.801224804585894 1.871679530005806
172 15 3 0.0 2.1725281040463003 8.877860976624838 1.916818302661746
173 15 1 0.0 1.6322077830118964 8.790600949223178 2.418091991178656
174 15 2 0.0 1.6821912660135696 8.428989991128594 2.6905511777884494
175 15 1 0.0 1.5937098797913771 8.55149586992239 3.123270053631209
176 15 1 0.0 1.5719912667537803 8.45272602974362 3.5981821119816635
177 15 1 0.0 2.383509168494075 8.641731297395978 2.3162192898596725
178 15 1 0.0 2.3194977179918794 8.801519902101925 2.780470397377576
179 15 1 0.0 2.312956515030879 8.565798416634669 3.161494681226321
180 15 1 0.0 2.2861829699585705 8.554210576761273 3.652428689531737
181 16 5 8.861242189860825 1.7495506723101588 9.939697214655164 1.055237078890277
182 16 6 -8.861242189860825 1.7185078955267277 9.686552480052958 1.422096393184308
183 16 3 0.0 1.663413939828932 9.663499034048478 1.9220086641157759
184 16 3 0.0 1.7126872179089971 10.076390338721948 2.015513385290323
185 16 1 0.0 1.566314223400053 9.48957836814192 2.4457020998873897
186 16 2 0.0 1.8882273148492932 9.394548999581428 2.753657003436138
187 16 1 0.0 1.6906313503388695 9.30730064815997 3.157916612525267
188 16 1 0.0 1.71688681945687 9.208339447059528 3.632559608540202
189 16 1 0.0 1.9492420937288863 10.160533820285606 2.4590819242773687
190 16 1 0.0 1.719932703033778 10.10510594580164 2.8944023911636574
191 16 1 0.0 1.8919893178518414 9.986132489908611 3.2906709226164264
192 16 1 0.0 1.8323927221042116 9.908585954000879 3.7726481853617733
193 17 5 8.861242189860825 3.377207043658677 0.6511385422876316 1.0883695533540747
194 17 6 -8.861242189860825 3.3522576140799383 0.4823902592232863 1.5013262218534036
195 17 3 0.0 3.275824053552533 0.5636197425830224 1.9922832116327356
196 17 3 0.0 3.2822754779799177 0.9897746132913696 1.99307288501798
197 17 1 0.0 3.170406480806301 0.49937449014775265 2.538809743949373
198 17 2 0.0 3.484711389727538 0.5067242583381069 2.8684356638808794
199 17 1 0.0 3.2770184440849226 0.49043303217633216 3.2767009058962904
200 17 1 0.0 3.2897023334747715 0.5006400893468979 3.761988014298878
201 17 1 0.0 3.4886986577292496 1.1920730108449578 2.412901674826807
202 17 1 0.0 3.2450500051733293 1.2102631360710059 2.843556302426248
203 17 1 0.0 3.408320066158285 1.1985888575465355 3.260681594558502
204 17 1 0.0 3.3332905986530657 1.222554412688407 3.746133479334035
205 18 5 8.861242189860825 3.1423184296511715 1.8387761951131476 0.8271332750358913
206 18 6 -8.861242189860825 3.048058825754947 1.9934007576054684 1.2355913988122689
207 18 3 0.0 3.124484274983477 1.9628091106282608 1.732282838038282
208 18 3 0.0 3.3440865546267537 1.5977740652804715 1.745491650742669
209 18 1 0.0 3.1450726974784855 2.0707584744485774 2.281695815078489
210 18 2 0.0 2.86188227468669 1.8968172265716874 2.5932122170241425
211 18 1 0.0 3.0031863977868825 2.018778817840711 3.0118299264052384
212 18 1 0.0 2.966998232393297 2.0013280066900703 3.4957250891455915
213 18 1 0.0 3.249489106106133 1.315098777504502 2.158937400457284
214 18 1 0.0 3.4380290571387158 1.42672840192526 2.6029536936686704
215 18 1 0.0 3.2671111838917692 1.3484650026851404 3.0097077125469585
216 18 1 0.0 3.312448142430171 1.365745986103641 3.499108600431389
217 19 5 8.861242189860825 3.196642757127534 2.8789622008489775 1.0941390527415866
218 19 6 -8.861242189860825 3.1519902887467475 2.759424566956731 1.5223312739255772
219 19 3 0.0 3.2232419420665606 2.8734281309809226 2.0075172931428917
220 19 3 0.0 3.473117338838948 3.2156255964862006 1.9615455738009757
221 19 1 0.0 3.1975244180866715 2.8866447100485324 2.5670666641802655
222 19 2 0.0 3.5107999660838405 2.711401828561305 2.847500623376113
223 19 1 0.0 3.406619393189701 2.822297335068597 3.2798556469683025
224 19 1 0.0 3.507418816518985 2.8265709045105125 3.754818651326106
225 19 1 0.0 3.8277258220952928 3.262264830244595 2.324683273606412
226 19 1 0.0 3.718479953772779 3.4223029282984347 2.7803279841503157
227 19 1 0.0 3.9152892999286486 3.320413067273627 3.169778171485693
228 19 1 0.0 3.9538378859103904 3.387070632447506 3.655512745902
229 20 5 8.861242189860825 2.9044729891329224 4.367058312289459 0.9668211432535945
230 20 6 -8.861242189860825 3.0601885887441447 4.164122358259124 1.3331561234712204
231 20 3 0.0 3.0447616496842818 4.115559014271942 1.8340380408200057
232 20 3 0.0 2.802840574291346 4.453563261519131 1.9282587413758443
233 20 1 0.0 3.1011851536247375 3.9278868411487693 2.358944805177767
234 20 2 0.0 3.407995968650316 4.079751894211451 2.6594426777105697
235 20 1 0.0 3.3295543852821443 3.8863102999696717 3.067498481704773
236 20 1 0.0 3.424893070480551 3.8367939890953724 3.5410249463399834
237 20 1 0.0 2.9280191081834857 4.680843111802135 2.366967742709152
238 20 1 0.0 2.8052860580239267 4.489654261284886 2.806902256764701
239 20 1 0.0 3.0198633523328 4.523354057009026 3.19883059136779
240 20 1 0.0 3.037729531994952 4.43147297066557 3.6816410788844953
241 21 5 8.861242189860825 3.099108319647194 6.322924256566702 0.8985474340445139
242 21 6 -8.861242189860825 3.2002380532488788 6.454489394421283 1.313390848617399
243 21 3 0.0 3.245067497296081 6.33539561002941 1.8005110344243622
244 21 3 0.0 3.0609952807911567 5.951039766506178 1.794328563223077
245 21 1 0.0 3.378122393707946 6.334798019649271 2.3447789877862997
246 21 2 0.0 3.095918748988676 6.45040381877 2.683144535784244
247 21 1 0.0 3.299154559236711 6.367310552342481 3.0854789564652148
248 21 1 0.0 3.2926475861772424 6.350095031499315 3.570690176236135
249 21 1 0.0 2.796956296298078 5.84207480305826 2.216467681229898
250 21 1 0.0 3.018852224428016 5.7120373138358795 2.63956507344233
251 21 1 0.0 2.883439373860443 5.7794497912530405 3.061353917200864
252 21 1 0.0 2.950837613013142 5.713099117954544 3.5439742304611377
253 22 5 8.861242189860825 3.4601307792957328 7.2792851520717194 1.0821697194429358
254 22 6 -8.861242189860825 3.309208013847877 7.429993591953369 1.4747776054431334
255 22 3 0.0 3.351960973752528 7.43296808339723 1.9764173374969363
256 22 3 0.0 3.631258970009057 7.114463774078953 2.0232985973181123
257 22 1 0.0 3.311324540759556 7.564032944948759 2.519650482666037
258 22 2 0.0 3.0407332538490124 7.353921678405594 2.8198644947888116
259 22 1 0.0 3.1259705181167323 7.515531781485449 3.2402203617874012
260 22 1 0.0 3.0568662787012593 7.510556148369835 3.7208121738460234
261 22 1 0.0 3.5572921356024594 6.8355499643132935 2.4434502100399866
262 22 1 0.0 3.6887849197190112 6.996532797439858 2.892842165892214
263 22 1 0.0 3.5041376813539804 6.90444021735345 3.290599962782121
264 22 1 0.0 3.5084379369343566 6.948556058279734 3.780398494467142
265 23 5 8.861242189860825 3.059652512719758 8.453544841637903 1.0583508885811486
266 23 6 -8.861242189860825 2.882974874884339 8.505611304224711 1.4654206158934684
267 23 3 0.0 2.954194460159269 8.617641269415632 1.9510708413928057
268 23 3 0.0 3.3803059212874875 8.61652210196136 1.9599019482900242
269 23 1 0.0 2.8786179849033613 8.760722680883305 2.4874918269168047
270 23 2 0.0 2.883297427032755 8.470681759274903 2.8387028867783046
271 23 1 0.0 2.8571096293018687 8.706567504362683 3.23081815818692
272 23 1 0.0 2.8584136002825504 8.728432521703443 3.7158839921973685
273 23 1 0.0 3.5770159765133944 8.442881756430001 2.396875137535875
274 23 1 0.0 3.5844871113773813 8.716642266697471 2.809377646598313
275 23 1 0.0 3.566848318580152 8.583210827404688 3.236778904114513
276 23 1 0.0 3.580935479802185 8.6927434664396 3.7160194012912906
277 24 5 8.861242189860825 3.586642233552836 9.849440725854544 1.1136392541961617
278 24 6 -8.861242189860825 3.7385632004719596 9.810421430821197 1.5320041446410848
279 24 3 0.0 3.6388289388546626 9.710798598402144 2.015333692957166
280 24 3 0.0 3.2129848681514908 9.70735134285035 1.9981534087407073
281 24 1 0.0 3.6827990868325697 9.583169106831557 2.559124927346303
282 24 2 0.0 3.6538461407533123 9.882550726798426 2.901217333714049
283 24 1 0.0 3.658246555427057 9.657688988893446 3.3005919782954414
284 24 1 0.0 3.62746371217136 9.648964853003582 3.78509682725152
285 24 1 0.0 2.9882382017839766 9.890541318272144 2.417345193493905
286 24 1 0.0 2.9581600532850145 9.627994094369932 2.8360613443944698
287 24 1 0.0 2.948322338615713 9.773150296598152 3.259877114811619
288 24 1 0.0 2.9059791007599065 9.676494284023393 3.7402227889885884
289 25 5 8.861242189860825 4.483582436543291 0.48715695873070336 0.8628411532164701
290 25 6 -8.861242189860825 4.504297602736261 0.38134872006432335 1.2964390840826694
291 25 3 0.0 4.36433074950049 0.48506802202621196 1.7688061768725716
292 25 3 0.0 4.184660358637557 0.8662359962094768 1.7049333000481126
293 25 1 0.0 4.257564671960675 0.45428702887532557 2.317973822293926
294 25 2 0.0 4.512232215743683 0.6433372684108477 2.644928392578886
295 25 1 0.0 4.302968981615435 0.5915951661971423 3.0494205745282477
296 25 1 0.0 4.274291674865999 0.6708405249476851 3.527611360556145
297 25 1 0.0 4.251079548472864 1.1927193912649001 2.090664381914255
298 25 1 0.0 3.9929047271690057 1.1586981079598981 2.511790572916275
299 25 1 0.0 4.113886953183656 1.2758818674103085 2.9270232527948274
300 25 1 0.0 4.000497322154205 1.3286655308152844 3.402653337747459
301 26 5 8.861242189860825 4.115558907743368 1.7660449269549459 0.9709054246553606
302 26 6 -8.861242189860825 3.9741589876754833 1.7618197387836587 1.3947212779705078
303 26 3 0.0 4.070263915666754 1.863610030353573 1.878334411903897
304 26 3 0.0 4.486614964645191 1.9498105082922317 1.8488132346349047
305 26 1 0.0 4.0222362847026565 1.9632005794149536 2.4276126991425753
306 26 2 0.0 4.1204706860968034 1.664464156949869 2.7571599555878805
307 26 1 0.0 4.087366180191552 1.8715857970982854 3.1646976709326835
308 26 1 0.0 4.13335104090459 1.8708764513288487 3.6480748860159595
309 26 1 0.0 4.757330326450891 1.8004278130600309 2.254016130466723
310 26 1 0.0 4.751498547521487 2.0505604293957904 2.681284921066287
311 26 1 0.0 4.804310340144637 1.8968063503395496 3.0988463041742236
312 26 1 0.0 4.844593145113941 1.9846919624798274 3.58105032330101
313 27 5 8.861242189860825 4.274418350833047 3.6450356531254866 0.9192896741290342
314 27 6 -8.861242189860825 4.493280900446098 3.6431555533500464 1.3088115820279902
315 27 3 0.0 4.51142912461948 3.490001762574523 1.788075227932214
316 27 3 0.0 4.1170744533565715 3.3325427892864314 1.8246987623578952
317 27 1 0.0 4.681435676772439 3.360122084516457 2.3059174906752458
318 27 2 0.0 4.602110926453111 3.6108733996138476 2.6778397996576953
319 27 1 0.0 4.747526203968443 3.3833838164316123 3.0482249480723884
320 27 1 0.0 4.7973842169175365 3.3398185286271396 3.529249777879711
321 27 1 0.0 3.9100837732873117 3.400066170125023 2.285553224143295
322 27 1 0.0 4.039992958926405 3.12400430687191 2.675517845570259
323 27 1 0.0 4.045433316897313 3.2342066420521514 3.109813549849597
324 27 1 0.0 4.115023073849022 3.1048656944535855 3.579170009548619
325 28 5 8.861242189860825 5.021626846374347 4.304642677114243 0.7818994272276265
326 28 6 -8.861242189860825 5.01138927048518 4.136472790991637 1.1957179243649059
327 28 3 0.0 4.847149426835944 4.177752751253957 1.6698490482049098
328 28 3 0.0 4.687552192835299 4.572587198716898 1.652975984297514
329 28 1 0.0 4.705787495836248 4.073377440627266 2.201877399541421
330 28 2 0.0 4.947518553562772 4.200396593696479 2.5664690511725667
331 28 1 0.0 4.711933924006494 4.101268716303908 2.946936944427618
332 28 1 0.0 4.65731767251079 4.112000080157992 3.429296297555834
333 28 1 0.0 4.743600339827155 4.836286402470154 2.0855412611073803
334 28 1 0.0 4.458947631089624 4.754697728431767 2.482372558383581
335 28 1 0.0 4.558997771491425 4.804584418825972 2.916294438975709
336 28 1 0.0 4.418968555533747 4.793735964643942 3.3876132599235156
337 29 5 8.861242189860825 4.6651374560628005 5.914246094617178 0.7963073166562109
338 29 6 -8.861242189860825 4.749536431576295 6.130040406421151 1.1783299534944691
339 29 3 0.0 4.769146219988686 6.116899483322022 1.6812433220714968
340 29 3 0.0 4.577635485710544 5.741960602159582 1.7475357978025419
341 29 1 0.0 4.876660298582658 6.230783772579768 2.2192048998766167
342 29 2 0.0 4.581456564304756 6.418673808901428 2.510832970326905
343 29 1 0.0 4.763962644166786 6.421021181597656 2.931271184827302
344 29 1 0.0 4.734503201275077 6.507543368455789 3.40815135326973
345 29 1 0.0 4.292015751850393 5.728080878473342 2.1694600853743395
346 29 1 0.0 4.491217467342252 5.688788506018904 2.621050320911901
347 29 1 0.0 4.3377283854896485 5.84582954527071 3.0116474594988007
348 29 1 0.0 4.3811803718942635 5.8830289800483735 3.5001097693950793
349 30 5 8.861242189860825 4.598862506661558 6.789898740271379 0.7880710258479848
350 30 6 -8.861242189860825 4.695036128801874 6.6908123459421285 1.2129994762896716
351 30 3 0.0 4.555106241782812 6.7014826320533345 1.69651251196514
352 30 3 0.0 4.21626674730037 6.957981648132196 1.6641664145327602
353 30 1 0.0 4.511654714215839 6.6057770168040255 2.246861462715548
354 30 2 0.0 4.6719695178324585 6.879872704050212 2.5734584007439643
355 30 1 0.0 4.537732149236262 6.723118977866185 2.982714884818749
356 30 1 0.0 4.507968513769727 6.763476766379331 3.465678669753008
357 30 1 0.0 4.15061960625356 7.264529468369676 2.066049818423676
358 30 1 0.0 3.9660461459491336 7.1002319554208855 2.495116153401102
359 30 1 0.0 4.047053006359457 7.245699482809565 2.9111257662364336
360 30 1 0.0 3.9543211740645416 7.22346561751351 3.3935921005777194
361 31 5 8.861242189860825 4.150787595709264 8.343705860512506 0.870137656132083
362 31 6 -8.861242189860825 4.019658312880306 8.309579611613282 1.2958983605804442
363 31 3 0.0 4.074028824938697 8.460269650098349 1.7731985215639146
364 31 3 0.0 4.434054788653189 8.684905317712694 1.733570998596228
365 31 1 0.0 3.994096093001564 8.561576608017498 2.318431706790622
366 31 2 0.0 4.190402125760781 8.3311275310719 2.658802102671918
367 31 1 0.0 4.086930329241874 8.531885530973852 3.05764052153096
368 31 1 0.0 4.130139688787454 8.569130879321637 3.539837968560696
369 31 1 0.0 4.739790514020171 8.657867015987485 2.1404935711048814
370 31 1 0.0 4.646845211206106 8.909294586161385 2.556791904589558
371 31 1 0.0 4.749925685372684 8.802687484431894 2.979634963697719
372 31 1 0.0 4.7568471647756265 8.920819546569646 3.456986207832946
373 32 5 8.861242189860825 4.633129971907883 9.265171551071179 0.8383247803904119
374 32 6 -8.861242189860825 4.856975718781205 9.370172897127704 1.210479944353746
375 32 3 0.0 4.880993256663886 9.355786631988831 1.7131679959368102
376 32 3 0.0 4.486846874655888 9.216770051288561 1.7966739126736293
377 32 1 0.0 5.057395722320204 9.373641733757578 2.2446705199961285
378 32 2 0.0 4.983327368370782 9.7180905699304 2.5333982813173135
379 32 1 0.0 5.133062656478187 9.601417142044657 2.950589995374826
380 32 1 0.0 5.189015643242104 9.692640742292813 3.4242102659269245
381 32 1 0.0 4.285922165287961 9.410513474649045 2.223152670190218
382 32 1 0.0 4.4203130836407665 9.252683145579415 2.6728054508009125
383 32 1 0.0 4.4315403425990665 9.47892972627223 3.0594232780031874
384 32 1 0.0 4.5069124707772295 9.484400179099191 3.5453825537653185
385 33 5 8.861242189860825 5.429563817205216 0.613669319723964 1.067644600007545
386 33 6 -8.861242189860825 5.3722954592058345 0.38045305500979476 1.4444232832903954
387 33 3 0.0 5.385996528658925 0.37130195566452107 1.9476206819637032
388 33 3 0.0 5.5787014172543286 0.7449283475457908 2.0177517270925382
389 33 1 0.0 5.315255266882454 0.23280804210687586 2.485901907179656
390 33 2 0.0 5.630539258375666 0.03535821325265753 2.7487790871490856
391 33 1 0.0 5.476350495119236 0.012671663206262673 3.1798166925733775
392 33 1 0.0 5.538022311274959 10.279217046136235 3.649393887604327
393 33 1 0.0 5.8915727021327235 0.7432244565895572 2.420119766823666
394 33 1 0.0 5.7224838715885 0.7605953104842513 2.8851640395988762
395 33 1 0.0 5.902706693451822 0.5881543359879465 3.2574149707245112
396 33 1 0.0 5.892032832739674 0.5291020703211923 3.745540159458521
397 34 5 8.861242189860825 5.700094790944309 2.1558490863683764 0.9967234892750381
398 34 6 -8.861242189860825 5.8279419467882105 1.9651441818607618 1.3800228647909658
399 34 3 0.0 5.781303985617008 1.938806914319102 1.880632825609967
400 34 3 0.0 5.543731916267648 2.28661617310282 1.9457362023198508
401 34 1 0.0 5.801039427588284 1.7727585933738352 2.415394487541414
402 34 2 0.0 6.093496738138585 1.9297097231280016 2.727371900713758
403 34 1 0.0 5.985471394827494 1.7562414333368526 3.1376419936975353
404 34 1 0.0 6.0509640193690055 1.724953089275614 3.6177465638741295
405 34 1 0.0 5.648812070721276 2.5295026128880886 2.3813458005283357
406 34 1 0.0 5.49475226817941 2.3607936660184117 2.820620001122627
407 34 1 0.0 5.686418770950349 2.40604376797585 3.2231163252274757
408 34 1 0.0 5.672869397081582 2.334813437524087 3.7095420191941795
409 35 5 8.861242189860825 5.712373266628174 2.877530301276498 1.03274930106141
410 35 6 -8.861242189860825 5.4711532299621295 2.9336542476438 1.4046292059857364
411 35 3 0.0 5.46214061062718 3.0464559433946063 1.8952141976879235
412 35 3 0.0 5.880764703743765 3.0392298317710327 1.974912819148813
413 35 1 0.0 5.300402889217061 3.1926101404508724 2.4113647840347063
414 35 2 0.0 5.242217142102649 2.903843134841691 2.7588167623847744
415 35 1 0.0 5.154584671944803 3.141541795899703 3.1407881857435447
416 35 1 0.0 5.075401164492891 3.1651937911762578 3.6192640972740335
417 35 1 0.0 5.999347112786383 2.8644031700461 2.438771886278781
418 35 1 0.0 5.9420655549621975 3.139563395594429 2.8464048440119547
419 35 1 0.0 5.851507822023394 3.0079941317355807 3.2650642960038345
420 35 1 0.0 5.787197811782935 3.1190981252275183 3.739814152741578
421 36 5 8.861242189860825 5.665845027815917 4.526408928355144 1.029773688925522
422 36 6 -8.861242189860825 5.458445237173672 4.535380219299051 1.4254206400219338