Lipid soup setup

4400 atoms
1408 bonds
1024 angles
0 dihedrals
0 impropers

6 atom types
2 bond types
3 angle types
0 dihedral types
0 improper types

0 9.413896219792694 xlo xhi
0 9.413896219792694 ylo yhi
0 16.54979464285714 zlo zhi

Masses

1 1
2 1
3 1
4 1
5 1
6 1

Atoms

1 1 5 8.861242189860825 0.4809027976760824 0.6055256580262461 5.068677907361207
2 1 6 -8.861242189860825 0.6170396256407791 0.42051411545242123 5.451913031426965
3 1 3 0.0 0.5721194357021258 0.3925041308167019 5.952589275372643
4 1 3 0.0 0.32031471719836435 0.7301286042109105 6.017814400854857
5 1 1 0.0 0.5993847005260954 0.2276918080248388 6.487402393405715
6 1 2 0.0 0.8853972743577172 0.39686718472922433 6.798965134249789
7 1 1 0.0 0.7851790607818494 0.2192473287693636 7.209440185859412
8 1 1 0.0 0.8524746416289163 0.1909597404203442 7.689481600522495
9 1 1 0.0 0.4156699479979811 0.9774067038545936 6.453190450883656
10 1 1 0.0 0.26929227835291497 0.8026354583367823 6.892721501425369
11 1 1 0.0 0.459367989827554 0.8560462538720509 7.294971947984742
12 1 1 0.0 0.44936466099820616 0.7845560699188536 7.78144536788573
13 2 5 8.861242189860825 0.5634623233083881 1.9427255737609357 5.403841805076091
14 2 6 -8.861242189860825 0.41291768495371173 1.7844384553292207 5.793602202157141
15 2 3 0.0 0.3959054334861586 1.8285479715619968 6.294844676247958
16 2 3 0.0 0.6962547860597224 2.126286174976674 6.347688284429905
17 2 1 0.0 0.25501184290207674 1.7819952499528016 6.835134790791367
18 2 2 0.0 0.4737332574918066 1.5252244636107004 7.141279442935182
19 2 1 0.0 0.2977693629277708 1.6021315595549228 7.55745762347898
20 2 1 0.0 0.2957595732403195 1.5349802989939378 8.038347747726052
21 2 1 0.0 0.9693107557001284 2.0702371617058954 6.774408718787142
22 2 1 0.0 0.7905827945531178 2.1934490543323855 7.219418943658997
23 2 1 0.0 0.8842207961664519 2.0158270268945833 7.620005077907628
24 2 1 0.0 0.8286850679964687 2.019087524838671 8.108648560734606
25 3 5 8.861242189860825 0.3429396040256044 2.762575051987038 5.157178364298486
26 3 6 -8.861242189860825 0.48130035729162607 2.9233653741950008 5.5504142240206775
27 3 3 0.0 0.5649640130101554 2.8413890374990394 6.04006650563355
28 3 3 0.0 0.3738099594582871 2.4625313892480154 6.079780841358054
29 3 1 0.0 0.7435957430132532 2.8797052754113652 6.569740120776473
30 3 2 0.0 0.4932910897694638 3.0284142919949826 6.92006575630201
31 3 1 0.0 0.7282632577528585 2.971691216546465 7.3094920581131575
32 3 1 0.0 0.762544742606855 2.9924116317963168 7.793397097181734
33 3 1 0.0 0.14445820492906575 2.3934704317425113 6.529691655170868
34 3 1 0.0 0.39889259896383256 2.2910986840250334 6.941932021004078
35 3 1 0.0 0.3009803560202357 2.3945190827601985 7.366790026385558
36 3 1 0.0 0.4077418520309858 2.364184244705644 7.8459028333832865
37 4 5 8.861242189860825 0.7524255625741983 4.266389832980782 5.088760840783857
38 4 6 -8.861242189860825 0.9304285247624069 4.2557421556866775 5.498435393998964
39 4 3 0.0 0.8993706929792437 4.092764051057121 5.973780145154644
40 4 3 0.0 0.5030849755627148 3.936052362496727 5.966759096097502
41 4 1 0.0 1.0154834400279174 3.9517042026447853 6.503451285362345
42 4 2 0.0 0.8990532294056954 4.1950980779223155 6.87046391387393
43 4 1 0.0 1.0055810412844632 3.9595526484861927 7.248950964544805
44 4 1 0.0 1.0060639362830626 3.9059859355623376 7.731547086293452
45 4 1 0.0 0.2502928631938197 3.9949142764010026 6.405419336555327
46 4 1 0.0 0.3393211676157167 3.710464544825756 6.800794179001581
47 4 1 0.0 0.30062913221080756 3.811751474582899 7.235570897773543
48 4 1 0.0 0.3217930174592197 3.672592816959373 7.706797233231465
49 5 5 8.861242189860825 0.387518071118693 5.06352297939189 5.431069923666166
50 5 6 -8.861242189860825 0.35392283731349283 5.237854558535975 5.841083981852268
51 5 3 0.0 0.5231168571804785 5.250925145079335 6.315089917852687
52 5 3 0.0 0.7791411681804468 4.910311927664787 6.305902611982781
53 5 1 0.0 0.6326284187743975 5.400084919637351 6.843947315608726
54 5 2 0.0 0.4317247913194826 5.223219729475913 7.2125274004474855
55 5 1 0.0 0.633668807246997 5.388215374404181 7.5894588572711825
56 5 1 0.0 0.689066809807692 5.402714349526789 8.071630490282253
57 5 1 0.0 0.7928677352489553 4.650815791850644 6.744382623382343
58 5 1 0.0 1.0467385175469912 4.811886420427627 7.1377842417395465
59 5 1 0.0 0.9628127842471288 4.747604566312972 7.57322795274153
60 5 1 0.0 1.0951729337618001 4.804722811223984 8.043425356156554
61 6 5 8.861242189860825 0.906868145446472 6.179808759128514 5.34451234711482
62 6 6 -8.861242189860825 0.8890731619551562 6.419794815682277 5.720971771693156
63 6 3 0.0 0.8253766793462671 6.427378023943457 6.220335704121894
64 6 3 0.0 0.6894290752397433 6.027599316169216 6.278175586881972
65 6 1 0.0 0.820405524597557 6.576317739203509 6.76045033683327
66 6 2 0.0 0.45348446408623044 6.720545729828923 6.988621465656639
67 6 1 0.0 0.5595042123651508 6.76854456967693 7.4319477517096795
68 6 1 0.0 0.4361933744592954 6.864934639205169 7.891591129122189
69 6 1 0.0 0.3428583430374536 5.979265554720367 6.648775045364973
70 6 1 0.0 0.46666317419856534 5.990198283351106 7.128057628030693
71 6 1 0.0 0.22582349716760697 6.131770905135515 7.478400822139311
72 6 1 0.0 0.17949870349029917 6.192518931545215 7.964231031201669
73 7 5 8.861242189860825 0.2461756959092484 7.811152882061502 5.098866059540283
74 7 6 -8.861242189860825 0.09891739921951628 7.939099394653834 5.50083166889391
75 7 3 0.0 0.18685525325047292 7.980783926715955 5.994803750665908
76 7 3 0.0 0.5433109666188345 7.748591152284131 6.02080486984086
77 7 1 0.0 0.1649619918891728 8.126684972921167 6.5353267727967115
78 7 2 0.0 9.402947623588872 7.870591333187111 6.868442900655558
79 7 1 0.0 0.06827665012501655 8.071755202848328 7.272594764989403
80 7 1 0.0 0.048923011359016555 8.075636119932291 7.757753520240696
81 7 1 0.0 0.5856793089608974 7.483714971943139 6.454206434441256
82 7 1 0.0 0.7122353755309141 7.697860928544911 6.882323271421894
83 7 1 0.0 0.5970260024532139 7.5832270117474225 7.299902936161721
84 7 1 0.0 0.6360897692424363 7.653968688944127 7.785018322942151
85 8 5 8.861242189860825 1.0691463273291917 8.43053915836196 5.313904532854988
86 8 6 -8.861242189860825 1.1682710460954093 8.369849827152063 5.745324006613819
87 8 3 0.0 1.0347407830307214 8.429848585299373 6.227038550531298
88 8 3 0.0 0.7017496078030774 8.69051013446754 6.173909911405029
89 8 1 0.0 0.9959527733372304 8.387915480490744 6.784415149120935
90 8 2 0.0 1.1668778032172162 8.687672754764728 7.081778651648546
91 8 1 0.0 1.0340995169662683 8.57386681666624 7.505453534915476
92 8 1 0.0 1.0113980921904964 8.66060385655842 7.9826641528524345
93 8 1 0.0 0.6485198580292548 9.035355445658753 6.545446839087018
94 8 1 0.0 0.46549316550638886 8.917180199521622 6.990075668387859
95 8 1 0.0 0.5551908830250829 9.099397248955265 7.38949797284412
96 8 1 0.0 0.46804159559664044 9.125371535332478 7.872817369731315
97 9 5 8.861242189860825 1.818755925150326 1.0664667484168562 5.46166870106614
98 9 6 -8.861242189860825 1.6306572228726806 0.9910894308304935 5.859875689109398
99 9 3 0.0 1.6865507418078707 0.9547651056986786 6.358910299031123
100 9 3 0.0 2.1121602497252487 0.9600877387238574 6.380783447813416
101 9 1 0.0 1.5935840913647346 0.9298335235071244 6.910876951778404
102 9 2 0.0 1.598288624583413 0.5484655250232583 7.159937504766498
103 9 1 0.0 1.5554488960543393 0.6561538132920284 7.60339016490821
104 9 1 0.0 1.544184209894771 0.532477230008702 8.072800275835712
105 9 1 0.0 2.3031714716184943 0.6683082430015316 6.752496808522704
106 9 1 0.0 2.2923344277770834 0.8067775317060631 7.227752286541957
107 9 1 0.0 2.2681921445689293 0.5516842071540172 7.595354594559735
108 9 1 0.0 2.267227910211992 0.5136772590094683 8.085682896215204
109 10 5 8.861242189860825 1.895912746826126 2.124843469562578 5.482766952179036
110 10 6 -8.861242189860825 1.812475650550702 2.296319601049745 5.886828648491436
111 10 3 0.0 1.7642150447180651 2.2194477504861387 6.382046495979351
112 10 3 0.0 1.7663731535536469 1.79326521896119 6.385789580120198
113 10 1 0.0 1.7270421519846115 2.2889557556914792 6.936770193768104
114 10 2 0.0 1.339966769537786 2.2763839880223946 7.176581454797376
115 10 1 0.0 1.4375846900538318 2.299483982063925 7.62381674346193
116 10 1 0.0 1.303104511663238 2.2916025907977717 8.090316055293819
117 10 1 0.0 1.4648476919507538 1.5886805808434086 6.742186697665076
118 10 1 0.0 1.5922989549194138 1.578228490487194 7.220523278114185
119 10 1 0.0 1.3288865488712394 1.588506141388169 7.582870052849914
120 10 1 0.0 1.2795007874173285 1.5688224208586692 8.071788143097377
121 11 5 8.861242189860825 1.7562234779530896 2.603391409454566 5.168014878159966
122 11 6 -8.861242189860825 1.8189502365633385 2.4380050252224166 5.57831277578607
123 11 3 0.0 1.801870601993548 2.511802760612858 6.076048915009629
124 11 3 0.0 1.7387216942066603 2.9332770159271986 6.080727145678441
125 11 1 0.0 1.7882588918344737 2.4380518394490345 6.631302992531137
126 11 2 0.0 2.141340626030829 2.5006956877819935 6.91220133570543
127 11 1 0.0 2.0001486647750584 2.4558403173802823 7.345946764938219
128 11 1 0.0 2.0808228611111357 2.4740406006280056 7.824412089055979
129 11 1 0.0 1.9676943513092444 3.171769109432558 6.468650368981368
130 11 1 0.0 1.789009153321559 3.1553442304950345 6.930127105332029
131 11 1 0.0 2.0104004519010306 3.17567340064624 7.319176624909904
132 11 1 0.0 2.0032445069242946 3.1931392133268033 7.81061435148204
133 12 5 8.861242189860825 1.3414686442349382 4.099387256752708 5.299815309799755
134 12 6 -8.861242189860825 1.2622232779391507 4.185880306874032 5.730942659121148
135 12 3 0.0 1.4382214269547977 4.205581550603036 6.20223407267922
136 12 3 0.0 1.812742174818793 4.010739418142651 6.143745004236225
137 12 1 0.0 1.5062137388147712 4.314338837439133 6.7476517710702915
138 12 2 0.0 1.4208143086910905 4.020956152415832 7.085480691410455
139 12 1 0.0 1.5567285132057942 4.2036517065198105 7.483264470716799
140 12 1 0.0 1.629606043248942 4.175169766167114 7.962478710213537
141 12 1 0.0 1.9605732973754473 3.725182979906445 6.539212908532402
142 12 1 0.0 2.146127842277483 3.924212604785686 6.952874212146234
143 12 1 0.0 2.1232437841107115 3.772303205665889 7.373809795425195
144 12 1 0.0 2.2471386307351935 3.8162916855040088 7.847711031845738
145 13 5 8.861242189860825 1.5749011011733767 5.317315338105106 5.2609687780969
146 13 6 -8.861242189860825 1.7728848781008282 5.165017952930412 5.631427409625475
147 13 3 0.0 1.749910136193979 5.091730076887029 6.129001657767733
148 13 3 0.0 1.4005525936203511 5.319895390094272 6.215835496710867
149 13 1 0.0 1.841590743297077 4.91208457607318 6.651738425126579
150 13 2 0.0 2.060130786308643 5.147558992013067 6.974673234327141
151 13 1 0.0 2.0336331953777274 4.920835448405954 7.372135916860424
152 13 1 0.0 2.115997558572859 4.8864090246738625 7.849419454888252
153 13 1 0.0 1.4157604594984585 5.556623671683057 6.666967212570408
154 13 1 0.0 1.3454188842029349 5.315175269461213 7.093480619945055
155 13 1 0.0 1.514364760341606 5.403810978402798 7.498928413089469
156 13 1 0.0 1.5386097531748655 5.3023469548499405 7.979536916454186
157 14 5 8.861242189860825 1.3402097578532561 6.617766728107861 5.416067611571394
158 14 6 -8.861242189860825 1.2295328022565728 6.612356723718721 5.848910551312697
159 14 3 0.0 1.3786507937154069 6.646132510216949 6.328600143470665
160 14 3 0.0 1.8005704023035356 6.629974649879048 6.270522731959932
161 14 1 0.0 1.3921601184202332 6.707497164530802 6.885361712705817
162 14 2 0.0 1.4332253181329797 6.366964882366808 7.18510536340065
163 14 1 0.0 1.4790567098958864 6.540557022055305 7.606825085639137
164 14 1 0.0 1.5540730548365875 6.487621486216947 8.083625903261261
165 14 1 0.0 2.050477386443661 6.385059199746264 6.641136149292821
166 14 1 0.0 2.134682457911899 6.591844458889086 7.083073155393389
167 14 1 0.0 2.1737777662022104 6.394999635816266 7.483710876319205
168 14 1 0.0 2.2653975245229083 6.429129713697881 7.9656945471303064
169 15 5 8.861242189860825 1.7463939883321609 8.105703819943594 5.287958439973695
170 15 6 -8.861242189860825 1.5473850575028638 8.021544967784118 5.6790395059752505
171 15 3 0.0 1.5757612392226048 8.021458665670442 6.181706263199083
172 15 3 0.0 1.9925820719888887 8.098094837709388 6.226845035855023
173 15 1 0.0 1.4522617509544844 8.010834810307726 6.728118724371933
174 15 2 0.0 1.5022452339561578 7.649223852213143 7.000577910981726
175 15 1 0.0 1.4137638477339651 7.771729731006938 7.433296786824486
176 15 1 0.0 1.3920452346963685 7.672959890828168 7.90820884517494
177 15 1 0.0 2.203563136436663 7.861965158480527 6.62624602305295
178 15 1 0.0 2.139551685934468 8.021753763186474 7.090497130570853
179 15 1 0.0 2.133010482973467 7.786032277719217 7.471521414419598
180 15 1 0.0 2.1062369379011585 7.774444437845822 7.9624554227250135
181 16 5 8.861242189860825 1.5696046402527473 9.039967054368105 5.365263812083553
182 16 6 -8.861242189860825 1.5385618634693161 8.7868223197659 5.7321231263775845
183 16 3 0.0 1.4834679077715205 8.76376887376142 6.232035397309052
184 16 3 0.0 1.5327411858515856 9.17666017843489 6.3255401184836
185 16 1 0.0 1.3863681913426416 8.589848207854862 6.755728833080666
186 16 2 0.0 1.7082812827918816 8.49481883929437 7.0636837366294145
187 16 1 0.0 1.510685318281458 8.407570487872912 7.467943345718544
188 16 1 0.0 1.5369407873994585 8.30860928677247 7.942586341733478
189 16 1 0.0 1.7692960616714748 9.260803659998547 6.769108657470645
190 16 1 0.0 1.5399866709763665 9.205375785514581 7.204429124356934
191 16 1 0.0 1.7120432857944299 9.086402329621553 7.600697655809703
192 16 1 0.0 1.6524466900468 9.00885579371382 8.08267491855505
193 17 5 8.861242189860825 3.077296990229657 0.5911565316018277 5.398396286547351
194 17 6 -8.861242189860825 3.0523475606509183 0.42240824853748243 5.81135295504668
195 17 3 0.0 2.975914000123513 0.5036377318972185 6.302309944826012
196 17 3 0.0 2.9823654245508977 0.9297926026055658 6.303099618211256
197 17 1 0.0 2.870496427377281 0.43939247946194876 6.848836477142649
198 17 2 0.0 3.184801336298518 0.44674224765230297 7.178462397074156
199 17 1 0.0 2.9771083906559026 0.4304510214905283 7.586727639089567
200 17 1 0.0 2.9897922800457515 0.44065807866109397 8.072014747492155
201 17 1 0.0 3.1887886043002296 1.132091000159154 6.722928408020083
202 17 1 0.0 2.9451399517443093 1.150281125385202 7.1535830356195245
203 17 1 0.0 3.108410012729265 1.1386068468607318 7.570708327751778
204 17 1 0.0 3.0333805452240457 1.1625724020026031 8.056160212527312
205 18 5 8.861242189860825 2.842408376222152 1.6588301630557356 5.137160008229168
206 18 6 -8.861242189860825 2.7481487723259272 1.8134547255480566 5.545618132005545
207 18 3 0.0 2.8245742215544576 1.782863078570849 6.042309571231558
208 18 3 0.0 3.044176501197734 1.4178280332230597 6.055518383935945
209 18 1 0.0 2.845162644049466 1.8908124423911654 6.591722548271766
210 18 2 0.0 2.5619722212576703 1.7168711945142756 6.9032389502174185
211 18 1 0.0 2.703276344357863 1.8388327857832993 7.321856659598515
212 18 1 0.0 2.6670881789642773 1.8213819746326583 7.805751822338868
213 18 1 0.0 2.9495790526771133 1.1351527454470902 6.4689641336505606
214 18 1 0.0 3.138119003709696 1.2467823698678484 6.912980426861947
215 18 1 0.0 2.9672011304627497 1.1685189706277286 7.3197344457402345
216 18 1 0.0 3.0125380890011515 1.1857999540462294 7.809135333624665
217 19 5 8.861242189860825 2.8967327036985147 2.579052147419958 5.404165785934863
218 19 6 -8.861242189860825 2.852080235317728 2.4595145135277114 5.832358007118854
219 19 3 0.0 2.9233318886375415 2.573518077551903 6.317544026336169
220 19 3 0.0 3.1732072854099282 2.915715543057181 6.271572306994252
221 19 1 0.0 2.897614364657652 2.586734656619513 6.877093397373542
222 19 2 0.0 3.210889912654821 2.4114917751322853 7.15752735656939
223 19 1 0.0 3.1067093397606813 2.5223872816395776 7.589882380161579
224 19 1 0.0 3.2075087630899652 2.526660851081493 8.064845384519382
225 19 1 0.0 3.527815768666273 2.9623547768155754 6.634710006799689
226 19 1 0.0 3.4185699003437593 3.122392874869415 7.090354717343592
227 19 1 0.0 3.6153792464996286 3.0205030138446074 7.47980490467897
228 19 1 0.0 3.6539278324813704 3.0871605790184864 7.965539479095277
229 20 5 8.861242189860825 2.604562935703903 3.947184237488832 5.276847876446872
230 20 6 -8.861242189860825 2.760278535315125 3.7442482834584965 5.643182856664497
231 20 3 0.0 2.744851596255262 3.6956849394713154 6.144064774013282
232 20 3 0.0 2.5029305208623263 4.033689186718503 6.238285474569121
233 20 1 0.0 2.801275100195718 3.508012766348142 6.668971538371044
234 20 2 0.0 3.1080859152212965 3.6598778194108235 6.969469410903846
235 20 1 0.0 3.0296443318531248 3.4664362251690446 7.37752521489805
236 20 1 0.0 3.124983017051531 3.4169199142947453 7.85105167953326
237 20 1 0.0 2.628109054754466 4.260969037001508 6.676994475902429
238 20 1 0.0 2.505376004594907 4.069780186484259 7.116928989957978
239 20 1 0.0 2.7199532989037802 4.103479982208399 7.508857324561067
240 20 1 0.0 2.7378194785659327 4.011598895864943 7.991667812077772
241 21 5 8.861242189860825 2.7991982662181747 5.7830861603944665 5.20857416723779
242 21 6 -8.861242189860825 2.9003279998198597 5.914651298249048 5.623417581810676
243 21 3 0.0 2.945157443867062 5.795557513857175 6.110537767617639
244 21 3 0.0 2.7610852273621376 5.411201670333943 6.104355296416354
245 21 1 0.0 3.078212340278927 5.794959923477036 6.654805720979577
246 21 2 0.0 2.796008695559657 5.910565722597765 6.9931712689775205
247 21 1 0.0 2.9992445058076918 5.827472456170246 7.395505689658492
248 21 1 0.0 2.9927375327482233 5.81025693532708 7.880716909429411
249 21 1 0.0 2.4970462428690587 5.302236706886025 6.5264944144231745
250 21 1 0.0 2.718942170998997 5.172199217663644 6.949591806635607
251 21 1 0.0 2.583529320431424 5.239611695080805 7.3713806503941415
252 21 1 0.0 2.650927559584123 5.1732610217823085 7.854000963654414
253 22 5 8.861242189860825 3.160220725866713 6.619483034527877 5.392196452636212
254 22 6 -8.861242189860825 3.0092979604188574 6.770191474409526 5.78480433863641
255 22 3 0.0 3.0520509203235084 6.773165965853388 6.286444070690212
256 22 3 0.0 3.3313489165800374 6.4546616565351105 6.333325330511389
257 22 1 0.0 3.0114144873305366 6.904230827404917 6.829677215859313
258 22 2 0.0 2.740823200419993 6.694119560861751 7.129891227982088
259 22 1 0.0 2.826060464687713 6.855729663941607 7.550247094980678
260 22 1 0.0 2.7569562252722397 6.850754030825993 8.0308389070393
261 22 1 0.0 3.25738208217344 6.175747846769451 6.753476943233263
262 22 1 0.0 3.3888748662899917 6.336730679896016 7.202868899085491
263 22 1 0.0 3.2042276279249613 6.244638099809608 7.600626695975397
264 22 1 0.0 3.208527883505337 6.288753940735892 8.090425227660418
265 23 5 8.861242189860825 2.7597424592907385 7.673778702722453 5.368377621774425
266 23 6 -8.861242189860825 2.5830648214553196 7.725845165309259 5.775447349086745
267 23 3 0.0 2.6542844067302496 7.837875130500181 6.261097574586082
268 23 3 0.0 3.080395867858468 7.836755963045908 6.269928681483301
269 23 1 0.0 2.5787079314743417 7.9809565419678545 6.797518560110081
270 23 2 0.0 2.5833873736037356 7.690915620359453 7.148729619971581
271 23 1 0.0 2.5571995758728496 7.926801365447232 7.540844891380196
272 23 1 0.0 2.558503546853531 7.948666382787992 8.025910725390645
273 23 1 0.0 3.277105923084375 7.66311561751455 6.706901870729151
274 23 1 0.0 3.2845770579483617 7.9368761277820195 7.11940437979159
275 23 1 0.0 3.2669382651511323 7.803444688489237 7.54680563730779
276 23 1 0.0 3.2810254263731653 7.912977327524149 8.026046134484567
277 24 5 8.861242189860825 3.286732180123817 8.949710565567486 5.423665987389438
278 24 6 -8.861242189860825 3.4386531470429405 8.910691270534139 5.842030877834362
279 24 3 0.0 3.3389188854256435 8.811068438115086 6.325360426150443
280 24 3 0.0 2.9130748147224717 8.807621182563292 6.308180141933985
281 24 1 0.0 3.3828890334035506 8.683438946544499 6.86915166053958
282 24 2 0.0 3.353936087324293 8.982820566511368 7.2112440669073266
283 24 1 0.0 3.358336501998038 8.757958828606387 7.610618711488718
284 24 1 0.0 3.327553658742341 8.749234692716524 8.095123560444797
285 24 1 0.0 2.6883281483549575 8.990811157985085 6.727371926687182
286 24 1 0.0 2.6582499998559954 8.728263934082873 7.146088077587747
287 24 1 0.0 2.648412285186694 8.873420136311093 7.569903848004896
288 24 1 0.0 2.6060690473308874 8.776764123736335 8.050249522181865
289 25 5 8.861242189860825 4.063708361742663 0.4271749480448996 5.172867886409747
290 25 6 -8.861242189860825 4.084423527935634 0.3213667093785196 5.606465817275946
291 25 3 0.0 3.9444566746998624 0.4250860113404082 6.078832910065848
292 25 3 0.0 3.764786283836929 0.806253985523673 6.014960033241389
293 25 1 0.0 3.837690597160048 0.3943050181895218 6.628000555487202
294 25 2 0.0 4.092358140943055 0.5833552577250439 6.9549551257721625
295 25 1 0.0 3.8830949068148075 0.5316131555113385 7.359447307721524
296 25 1 0.0 3.8544176000653723 0.6108585142618813 7.837638093749422
297 25 1 0.0 3.8312054736722367 1.1327373805790963 6.400691115107532
298 25 1 0.0 3.573030652368378 1.0987160972740941 6.821817306109551
299 25 1 0.0 3.6940128783830293 1.2158998567245045 7.2370499859881035
300 25 1 0.0 3.5806232473535773 1.2686835201294806 7.712680070940735
301 26 5 8.861242189860825 3.695684832942741 1.586098894897534 5.280932157848637
302 26 6 -8.861242189860825 3.5542849128748566 1.581873706726247 5.704748011163784
303 26 3 0.0 3.6503898408661266 1.6836639982961612 6.188361145097173
304 26 3 0.0 4.0667408898445645 1.76986447623482 6.1588399678281815
305 26 1 0.0 3.60236220990203 1.7832545473575419 6.737639432335852
306 26 2 0.0 3.7005966112961763 1.4845181248924573 7.067186688781157
307 26 1 0.0 3.667492105390925 1.6916397650408737 7.4747244041259595
308 26 1 0.0 3.713476966103964 1.690930419271437 7.958101619209236
309 26 1 0.0 4.337456251650265 1.620481781002619 6.564042863659999
310 26 1 0.0 4.3316244727208595 1.8706143973383789 6.9913116542595635
311 26 1 0.0 4.38443626534401 1.7168603182821378 7.4088730373675
312 26 1 0.0 4.424719070313315 1.8047459304224156 7.891077056494286
313 27 5 8.861242189860825 3.8545442760324193 3.345125599696467 5.22931640732231
314 27 6 -8.861242189860825 4.07340682564547 3.343245499921027 5.618838315221266
315 27 3 0.0 4.091555049818853 3.1900917091455034 6.09810196112549
316 27 3 0.0 3.697200378555944 3.032632735857412 6.134725495551171
317 27 1 0.0 4.261561601971812 3.0602120310874374 6.615944223868522
318 27 2 0.0 4.182236851652484 3.3109633461848285 6.987866532850971
319 27 1 0.0 4.327652129167816 3.083473763002593 7.358251681265664
320 27 1 0.0 4.377510142116909 3.03990847519812 7.8392765110729865
321 27 1 0.0 3.490209698486684 3.1001561166960037 6.595579957336572
322 27 1 0.0 3.6201188841257776 2.8240942534428903 6.985544578763535
323 27 1 0.0 3.625559242096685 2.934296588623132 7.419840283042873
324 27 1 0.0 3.6951489990483943 2.804955641024566 7.889196742741895
325 28 5 8.861242189860825 4.60175277157372 3.8847686023136165 5.091926160420903
326 28 6 -8.861242189860825 4.591515195684553 3.71659871619101 5.505744657558182
327 28 3 0.0 4.427275352035317 3.757878676453329 5.979875781398186
328 28 3 0.0 4.267678118034672 4.1527131239162705 5.963002717490791
329 28 1 0.0 4.2859134210356205 3.653503365826639 6.511904132734697
330 28 2 0.0 4.527644478762145 3.780522518895852 6.876495784365844
331 28 1 0.0 4.292059849205867 3.6813946415032808 7.256963677620894
332 28 1 0.0 4.237443597710163 3.6921260053573652 7.7393230307491105
333 28 1 0.0 4.323726265026528 4.416412327669527 6.395567994300657
334 28 1 0.0 4.039073556288997 4.3348236536311395 6.792399291576857
335 28 1 0.0 4.139123696690798 4.384710344025345 7.226321172168985
336 28 1 0.0 3.9990944807331195 4.373861889843315 7.697639993116792
337 29 5 8.861242189860825 4.245263381262173 5.374407998444943 5.106334049849488
338 29 6 -8.861242189860825 4.329662356775668 5.590202310248916 5.488356686687745
339 29 3 0.0 4.349272145188058 5.5770613871497865 5.991270055264773
340 29 3 0.0 4.157761410909917 5.202122505987347 6.057562530995819
341 29 1 0.0 4.456786223782031 5.690945676407533 6.529231633069894
342 29 2 0.0 4.161582489504129 5.878835712729193 6.820859703520181
343 29 1 0.0 4.344088569366159 5.881183085425421 7.241297918020579
344 29 1 0.0 4.31462912647445 5.967705272283553 7.7181780864630065
345 29 1 0.0 3.8721416770497656 5.188242782301107 6.479486818567616
346 29 1 0.0 4.071343392541625 5.148950409846669 6.931077054105177
347 29 1 0.0 3.9178543106890213 5.3059914490984745 7.321674192692077
348 29 1 0.0 3.9613062970936364 5.343190883876138 7.810136502588356
349 30 5 8.861242189860825 4.17898843186093 6.130096622727537 5.098097759041261
350 30 6 -8.861242189860825 4.275162054001246 6.031010228398286 5.523026209482948
351 30 3 0.0 4.135232166982184 6.041680514509492 6.006539245158416
352 30 3 0.0 3.796392672499742 6.298179530588354 5.974193147726036
353 30 1 0.0 4.091780639415212 5.945974899260183 6.556888195908824
354 30 2 0.0 4.252095443031831 6.2200705865063695 6.883485133937241
355 30 1 0.0 4.117858074435635 6.063316860322343 7.292741618012025
356 30 1 0.0 4.088094438969099 6.103674648835489 7.775705402946285
357 30 1 0.0 3.7307455314529325 6.604727350825834 6.376076551616952
358 30 1 0.0 3.546172071148506 6.440429837877043 6.805142886594378
359 30 1 0.0 3.6271789315588294 6.585897365265723 7.22115249942971
360 30 1 0.0 3.5344470992639145 6.5636634999696675 7.703618833770996
361 31 5 8.861242189860825 3.7309135209086373 7.5639397215970545 5.180164389325359
362 31 6 -8.861242189860825 3.5997842380796787 7.529813472697831 5.60592509377372
363 31 3 0.0 3.65415475013807 7.680503511182897 6.083225254757191
364 31 3 0.0 4.014180713852562 7.905139178797243 6.043597731789505
365 31 1 0.0 3.574222018200937 7.781810469102047 6.628458439983898
366 31 2 0.0 3.7705280509601535 7.5513613921564495 6.968828835865195
367 31 1 0.0 3.667056254441247 7.752119392058401 7.367667254724236
368 31 1 0.0 3.7102656139868273 7.789364740406187 7.849864701753972
369 31 1 0.0 4.3199164392195435 7.878100877072034 6.450520304298158
370 31 1 0.0 4.226971136405479 8.129528447245933 6.866818637782834
371 31 1 0.0 4.330051610572057 8.022921345516444 7.289661696890995
372 31 1 0.0 4.336973089974999 8.141053407654196 7.7670129410262225
373 32 5 8.861242189860825 4.213255897107256 8.36544139078412 5.148351513583688
374 32 6 -8.861242189860825 4.4371016439805775 8.470442736840646 5.520506677547022
375 32 3 0.0 4.461119181863259 8.456056471701773 6.023194729130086
376 32 3 0.0 4.066972799855261 8.317039891001503 6.106700645866906
377 32 1 0.0 4.637521647519577 8.47391157347052 6.5546972531894045
378 32 2 0.0 4.563453293570155 8.818360409643342 6.84342501451059
379 32 1 0.0 4.71318858167756 8.701686981757598 7.2606167285681025
380 32 1 0.0 4.769141568441477 8.792910582005755 7.734236999120201
381 32 1 0.0 3.8660480904873338 8.510783314361987 6.533179403383494
382 32 1 0.0 4.000439008840139 8.352952985292356 6.982832183994189
383 32 1 0.0 4.011666267798439 8.579199565985173 7.369450011196464
384 32 1 0.0 4.087038395976602 8.584670018812133 7.855409286958595
385 33 5 8.861242189860825 4.889725721032982 0.5536873090381601 5.377671333200821
386 33 6 -8.861242189860825 4.8324573630336 0.3204710443239909 5.754450016483672
387 33 3 0.0 4.846158432486691 0.3113199449787172 6.257647415156979
388 33 3 0.0 5.038863321082094 0.6849463368599871 6.327778460285814
389 33 1 0.0 4.77541717071022 0.17282603142107197 6.795928640372932
390 33 2 0.0 5.090701162203432 9.389272422359547 7.058805820342362
391 33 1 0.0 4.936512398947002 9.366585872313152 7.4898434257666535
392 33 1 0.0 4.998184215102725 9.25952286447757 7.959420620797603
393 33 1 0.0 5.351734605960489 0.6832424459037534 6.730146500016942
394 33 1 0.0 5.182645775416265 0.7006132997984476 7.195190772792152
395 33 1 0.0 5.362868597279588 0.5281723253021426 7.567441703917787
396 33 1 0.0 5.35219473656744 0.4691200596353884 8.055566892651797
397 34 5 8.861242189860825 5.160256694772074 1.9759030543109648 5.306750222468315
398 34 6 -8.861242189860825 5.288103850615975 1.7851981498033502 5.690049597984242
399 34 3 0.0 5.241465889444773 1.7588608822616905 6.190659558803244
400 34 3 0.0 5.003893820095413 2.1066701410454085 6.255762935513127
401 34 1 0.0 5.261201331416049 1.5928125613164237 6.72542122073469
402 34 2 0.0 5.553658641966349 1.74976369107059 7.037398633907034
403 34 1 0.0 5.445633298655259 1.576295401279441 7.447668726890812
404 34 1 0.0 5.51112592319677 1.5450070572182024 7.9277732970674055
405 34 1 0.0 5.108973974549041 2.3495565808306775 6.691372533721612
406 34 1 0.0 4.954914172007175 2.180847633961 7.130646734315904
407 34 1 0.0 5.1465806747781135 2.2260977359184384 7.533143058420753
408 34 1 0.0 5.133031300909347 2.1548674054666757 8.019568752387457
409 35 5 8.861242189860825 5.17253517045594 2.577620247847479 5.342776034254687
410 35 6 -8.861242189860825 4.931315133789895 2.6337441942147803 5.714655939179012
411 35 3 0.0 4.9223025144549455 2.746545889965587 6.2052409308811995
412 35 3 0.0 5.3409266075715305 2.739319778342013 6.28493955234209
413 35 1 0.0 4.760564793044827 2.892700087021853 6.721391517227983
414 35 2 0.0 4.702379045930415 2.6039330814126713 7.068843495578051
415 35 1 0.0 4.6147465757725685 2.8416317424706836 7.450814918936821
416 35 1 0.0 4.5355630683206565 2.865283737747238 7.92929083046731
417 35 1 0.0 5.459509016614149 2.5644931166170806 6.7487986194720575
418 35 1 0.0 5.402227458789963 2.8396533421654095 7.156431577205231
419 35 1 0.0 5.31166972585116 2.708084078306561 7.575091029197111
420 35 1 0.0 5.247359715610701 2.8191880717984987 8.049840885934854
421 36 5 8.861242189860825 5.126006931643682 4.106534853554517 5.339800422118798
422 36 6 -8.861242189860825 4.918607141001437 4.115506144498424 5.73544737321521
423 36 3 0.0 4.9557126844979935 4.1140197486893815 6.237543034642685
424 36 3 0.0 5.369822529408024 4.020583474603052 6.275396929067171
425 36 1 0.0 4.850119197015241 4.163720271910559 6.785549823855189