Lipid soup setup

4400 atoms
1408 bonds
1024 angles
0 dihedrals
0 impropers

6 atom types
2 bond types
3 angle types
0 dihedral types
0 improper types

0 10.373608390765556 xlo xhi
0 10.373608390765556 ylo yhi
0 13.629242647058822 zlo zhi

Masses

1 1
2 1
3 1
4 1
5 1
6 1

Atoms

1 1 5 8.861242189860825 0.5408848083618862 0.66550766871205 3.6084019094620476
2 1 6 -8.861242189860825 0.677021636326583 0.4804961261382251 3.991637033527806
3 1 3 0.0 0.6321014463879296 0.45248614150250577 4.4923132774734835
4 1 3 0.0 0.38029672788416824 0.7901106148967143 4.557538402955698
5 1 1 0.0 0.6593667112118993 0.2876738187106427 5.0271263955065555
6 1 2 0.0 0.9453792850435211 0.4568491954150282 5.33868913635063
7 1 1 0.0 0.8451610714676533 0.2792293394551675 5.749164187960252
8 1 1 0.0 0.9124566523147202 0.2509417511061481 6.229205602623336
9 1 1 0.0 0.475651958683785 1.0373887145403975 4.992914452984497
10 1 1 0.0 0.32927428903871886 0.8626174690225861 5.432445503526209
11 1 1 0.0 0.5193500005133579 0.9160282645578548 5.8346959500855835
12 1 1 0.0 0.50934667168401 0.8445380806046574 6.3211693699865705
13 2 5 8.861242189860825 0.6234443339941919 2.122671605818347 3.943565807176932
14 2 6 -8.861242189860825 0.4728996956395155 1.9643844873866323 4.333326204257981
15 2 3 0.0 0.45588744417196236 2.008494003619408 4.834568678348799
16 2 3 0.0 0.7562367967455261 2.3062322070340855 4.887412286530747
17 2 1 0.0 0.3149938535878805 1.9619412820102131 5.374858792892208
18 2 2 0.0 0.5337152681776104 1.705170495668112 5.681003445036023
19 2 1 0.0 0.35775137361357456 1.7820775916123344 6.09718162557982
20 2 1 0.0 0.35574158392612326 1.7149263310513494 6.578071749826893
21 2 1 0.0 1.0292927663859321 2.250183193763307 5.314132720887983
22 2 1 0.0 0.8505648052389215 2.373395086389797 5.759142945759838
23 2 1 0.0 0.9442028068522557 2.195773058951995 6.159729080008469
24 2 1 0.0 0.8886670786822725 2.1990335568960826 6.648372562835447
25 3 5 8.861242189860825 0.4029216147114083 3.062485105416058 3.6969023663993266
26 3 6 -8.861242189860825 0.5412823679774299 3.2232754276240208 4.090138226121519
27 3 3 0.0 0.6249460236959593 3.1412990909280594 4.579790507734391
28 3 3 0.0 0.433791970144091 2.7624414426770354 4.619504843458895
29 3 1 0.0 0.8035777536990572 3.1796153288403852 5.109464122877314
30 3 2 0.0 0.5532731004552677 3.3283243454240026 5.4597897584028505
31 3 1 0.0 0.7882452684386624 3.271601269975485 5.849216060213999
32 3 1 0.0 0.822526753292659 3.2923216852253367 6.333121099282575
33 3 1 0.0 0.20444021561486964 2.6933804851715313 5.069415657271709
34 3 1 0.0 0.45887460964963644 2.5910087374540534 5.481656023104919
35 3 1 0.0 0.3609623667060396 2.6944291361892185 5.906514028486399
36 3 1 0.0 0.4677238627167897 2.664094298134664 6.3856268354841275
37 4 5 8.861242189860825 0.8124075732600022 4.686263907781409 3.6284848428846983
38 4 6 -8.861242189860825 0.9904105354482108 4.675616230487305 4.038159396099805
39 4 3 0.0 0.9593527036650475 4.512638125857748 4.513504147255485
40 4 3 0.0 0.5630669862485187 4.355926437297354 4.506483098198343
41 4 1 0.0 1.0754654507137213 4.371578277445412 5.043175287463186
42 4 2 0.0 0.9590352400914992 4.614972152722943 5.410187915974771
43 4 1 0.0 1.0655630519702672 4.379426723286819 5.788674966645646
44 4 1 0.0 1.0660459469688663 4.325860010362964 6.271271088394293
45 4 1 0.0 0.3102748738796236 4.414788351201629 4.945143338656168
46 4 1 0.0 0.39930317830152057 4.130338619626383 5.340518181102422
47 4 1 0.0 0.36061114289661145 4.2316255493835255 5.775294899874384
48 4 1 0.0 0.38177502814502356 4.09246689176 6.246521235332306
49 5 5 8.861242189860825 0.4475000818044968 5.603361075564125 3.9707939257670066
50 5 6 -8.861242189860825 0.4139048479992966 5.77769265470821 4.38080798395311
51 5 3 0.0 0.5830988678662823 5.79076324125157 4.854813919953527
52 5 3 0.0 0.8391231788662505 5.450150023837022 4.8456266140836215
53 5 1 0.0 0.6926104294602012 5.939923015809586 5.383671317709567
54 5 2 0.0 0.4917068020052864 5.763057825648149 5.7522514025483265
55 5 1 0.0 0.6936508179328008 5.928053470576417 6.129182859372024
56 5 1 0.0 0.7490488204934957 5.942552445699024 6.611354492383093
57 5 1 0.0 0.852849745934759 5.190653888022879 5.284106625483184
58 5 1 0.0 1.106720528232795 5.351724516599862 5.677508243840387
59 5 1 0.0 1.0227947949329326 5.287442662485207 6.112951954842371
60 5 1 0.0 1.1551549444476041 5.344560907396219 6.583149358257396
61 6 5 8.861242189860825 0.9668501561322759 6.8396108766723565 3.8842363492156617
62 6 6 -8.861242189860825 0.94905517264096 7.079596933226119 4.260695773793997
63 6 3 0.0 0.8853586900320709 7.087180141487299 4.760059706222734
64 6 3 0.0 0.7494110859255472 6.687401433713058 4.817899588982813
65 6 1 0.0 0.8803875352833608 7.236119856747351 5.300174338934111
66 6 2 0.0 0.5134664747720343 7.380347847372765 5.52834546775748
67 6 1 0.0 0.6194862230509547 7.428346687220772 5.97167175381052
68 6 1 0.0 0.4961753851450993 7.524736756749011 6.43131513122303
69 6 1 0.0 0.4028403537232575 6.6390676722642095 5.188499047465814
70 6 1 0.0 0.5266451848843692 6.650000400894948 5.667781630131534
71 6 1 0.0 0.28580550785341086 6.791573022679358 6.018124824240152
72 6 1 0.0 0.23948071417610306 6.852321049089057 6.503955033302509
73 7 5 8.861242189860825 0.30615770659505226 8.590919020976953 3.638590061641124
74 7 6 -8.861242189860825 0.15889940990532017 8.718865533569284 4.040555670994751
75 7 3 0.0 0.2468372639362768 8.760550065631406 4.534527752766749
76 7 3 0.0 0.6032929773046385 8.528357291199582 4.560528871941701
77 7 1 0.0 0.22494400257497668 8.906451111836619 5.075050774897552
78 7 2 0.0 0.049033414481981674 8.650357472102563 5.408166902756399
79 7 1 0.0 0.12825866081082044 8.851521341763778 5.812318767090244
80 7 1 0.0 0.10890502204482044 8.855402258847743 6.297477522341538
81 7 1 0.0 0.6456613196467014 8.26348111085859 4.993930436542097
82 7 1 0.0 0.7722173862167181 8.47762706746036 5.422047273522735
83 7 1 0.0 0.6570080131390179 8.362993150662874 5.839626938262562
84 7 1 0.0 0.6960717799282401 8.43373482785958 6.324742325042992
85 8 5 8.861242189860825 1.1291283380149952 9.330269318649018 3.8536285349558286
86 8 6 -8.861242189860825 1.228253056781213 9.269579987439121 4.28504800871466
87 8 3 0.0 1.0947227937165254 9.329578745586431 4.766762552632139
88 8 3 0.0 0.7617316184888812 9.590240294754599 4.71363391350587
89 8 1 0.0 1.0559347840230342 9.287645640777802 5.324139151221776
90 8 2 0.0 1.2268598139030198 9.587402915051786 5.621502653749387
91 8 1 0.0 1.0940815276520721 9.473596976953297 6.0451775370163165
92 8 1 0.0 1.0713801028763001 9.560334016845479 6.522388154953275
93 8 1 0.0 0.7085018687150586 9.935085605945812 5.085170841187859
94 8 1 0.0 0.5254751761921926 9.81691035980868 5.5297996704887
95 8 1 0.0 0.6151728937108867 9.999127409242323 5.929221974944961
96 8 1 0.0 0.5280236062824442 10.025101695619536 6.412541371832156
97 9 5 8.861242189860825 1.9987019572077376 1.1264487591026602 4.001392703166981
98 9 6 -8.861242189860825 1.810603254930092 1.0510714415162974 4.399599691210239
99 9 3 0.0 1.8664967738652822 1.0147471163844826 4.898634301131964
100 9 3 0.0 2.2921062817826603 1.0200697494096613 4.920507449914257
101 9 1 0.0 1.773530123422146 0.9898155341929282 5.450600953879245
102 9 2 0.0 1.7782346566408245 0.6084475357090622 5.699661506867339
103 9 1 0.0 1.735394928111751 0.7161358239778323 6.143114167009051
104 9 1 0.0 1.7241302419521825 0.5924592406945058 6.612524277936553
105 9 1 0.0 2.483117503675906 0.7282902536873355 5.292220810623545
106 9 1 0.0 2.472280459834495 0.866759542391867 5.767476288642798
107 9 1 0.0 2.448138176626341 0.6116662178398211 6.135078596660577
108 9 1 0.0 2.447173942269403 0.5736592696952723 6.625406898316044
109 10 5 8.861242189860825 2.0758587788835374 2.3047895016199895 4.022490954279877
110 10 6 -8.861242189860825 1.9924216826081136 2.4762656331071566 4.426552650592278
111 10 3 0.0 1.9441610767754767 2.3993937825435507 4.921770498080191
112 10 3 0.0 1.9463191856110584 1.9732112510186015 4.925513582221039
113 10 1 0.0 1.906988184042023 2.468901787748891 5.476494195868945
114 10 2 0.0 1.5199128015951975 2.456330020079806 5.716305456898217
115 10 1 0.0 1.6175307221112434 2.479430014121336 6.163540745562771
116 10 1 0.0 1.4830505437206496 2.4715486228551833 6.63004005739466
117 10 1 0.0 1.6447937240081654 1.7686266129008201 5.281910699765917
118 10 1 0.0 1.7722449869768253 1.7581745225446055 5.760247280215026
119 10 1 0.0 1.508832580928651 1.7684521734455805 6.122594054950756
120 10 1 0.0 1.45944681947474 1.7487684529160807 6.611512145198219
121 11 5 8.861242189860825 1.9361695100105012 2.903301462883585 3.7077388802608073
122 11 6 -8.861242189860825 1.99889626862075 2.7379150786514357 4.118036777886911
123 11 3 0.0 1.9818166340509595 2.811712814041877 4.615772917110471
124 11 3 0.0 1.918667726264072 3.2331870693562177 4.620451147779282
125 11 1 0.0 1.9682049238918853 2.7379618928780536 5.171026994631978
126 11 2 0.0 2.3212866580882405 2.8006057412110126 5.451925337806271
127 11 1 0.0 2.18009469683247 2.7557503708093014 5.88567076703906
128 11 1 0.0 2.2607688931685472 2.7739506540570247 6.364136091156819
129 11 1 0.0 2.1476403833666557 3.471679162861577 5.008374371082209
130 11 1 0.0 1.9689551853789706 3.4552542839240536 5.46985110743287
131 11 1 0.0 2.190346483958442 3.475583454075259 5.858900627010745
132 11 1 0.0 2.183190538981706 3.4930492667558224 6.350338353582881
133 12 5 8.861242189860825 1.52141467629235 4.519261331553335 3.8395393119005963
134 12 6 -8.861242189860825 1.4421693099965625 4.605754381674659 4.2706666612219895
135 12 3 0.0 1.6181674590122093 4.625455625403663 4.741958074780062
136 12 3 0.0 1.9926882068762048 4.430613492943278 4.6834690063370665
137 12 1 0.0 1.686159770872183 4.7342129122397605 5.287375773171132
138 12 2 0.0 1.6007603407485023 4.440830227216459 5.625204693511296
139 12 1 0.0 1.736674545263206 4.623525781320438 6.02298847281764
140 12 1 0.0 1.8095520753063539 4.595043840967741 6.502202712314379
141 12 1 0.0 2.140519329432859 4.145057054707072 5.078936910633243
142 12 1 0.0 2.3260738743348948 4.3440866795863124 5.492598214247075
143 12 1 0.0 2.303189816168123 4.192177280466517 5.913533797526036
144 12 1 0.0 2.4270846627926055 4.236165760304636 6.387435033946579
145 13 5 8.861242189860825 1.7548471332307884 5.8571534342773415 3.800692780197741
146 13 6 -8.861242189860825 1.95283091015824 5.704856049102647 4.171151411726317
147 13 3 0.0 1.9298561682513908 5.631568173059264 4.668725659868574
148 13 3 0.0 1.580498625677763 5.859733486266507 4.755559498811708
149 13 1 0.0 2.021536775354489 5.4519226722454155 5.19146242722742
150 13 2 0.0 2.240076818366055 5.687397088185302 5.514397236427982
151 13 1 0.0 2.2135792274351394 5.4606735445781895 5.911859918961265
152 13 1 0.0 2.2959435906302708 5.426247120846098 6.389143456989093
153 13 1 0.0 1.5957064915558703 6.096461767855292 5.206691214671249
154 13 1 0.0 1.5253649162603464 5.855013365633448 5.633204622045896
155 13 1 0.0 1.6943107923990177 5.943649074575033 6.03865241519031
156 13 1 0.0 1.7185557852322773 5.842185051022176 6.519260918555027
157 14 5 8.861242189860825 1.520155789910668 7.277568845651703 3.9557916136722353
158 14 6 -8.861242189860825 1.4094788343139846 7.272158841262563 4.388634553413538
159 14 3 0.0 1.5585968257728187 7.3059346277607915 4.868324145571506
160 14 3 0.0 1.9805164343609474 7.28977676742289 4.810246734060774
161 14 1 0.0 1.5721061504776448 7.367299282074645 5.425085714806658
162 14 2 0.0 1.6131713501903915 7.026766999910651 5.724829365501491
163 14 1 0.0 1.6590027419532984 7.200359139599147 6.146549087739978
164 14 1 0.0 1.7340190868939993 7.147423603760789 6.623349905362102
165 14 1 0.0 2.2304234185010725 7.044861317290106 5.180860151393662
166 14 1 0.0 2.314628489969311 7.251646576432928 5.62279715749423
167 14 1 0.0 2.3537237982596224 7.054801753360108 6.023434878420046
168 14 1 0.0 2.44534355658032 7.088931831241723 6.505418549231148
169 15 5 8.861242189860825 1.9263400203895726 8.885469958859046 3.8276824420745363
170 15 6 -8.861242189860825 1.7273310895602756 8.801311106699568 4.218763508076092
171 15 3 0.0 1.7557072712800166 8.801224804585894 4.721430265299924
172 15 3 0.0 2.1725281040463003 8.877860976624838 4.766569037955864
173 15 1 0.0 1.6322077830118964 8.790600949223178 5.267842726472774
174 15 2 0.0 1.6821912660135696 8.428989991128594 5.540301913082567
175 15 1 0.0 1.5937098797913771 8.55149586992239 5.973020788925327
176 15 1 0.0 1.5719912667537803 8.45272602974362 6.447932847275781
177 15 1 0.0 2.383509168494075 8.641731297395978 5.165970025153791
178 15 1 0.0 2.3194977179918794 8.801519902101925 5.630221132671694
179 15 1 0.0 2.312956515030879 8.565798416634669 6.011245416520439
180 15 1 0.0 2.2861829699585705 8.554210576761273 6.502179424825854
181 16 5 8.861242189860825 1.7495506723101588 9.939697214655164 3.9049878141843943
182 16 6 -8.861242189860825 1.7185078955267277 9.686552480052958 4.271847128478425
183 16 3 0.0 1.663413939828932 9.663499034048478 4.771759399409893
184 16 3 0.0 1.7126872179089971 10.076390338721948 4.86526412058444
185 16 1 0.0 1.566314223400053 9.48957836814192 5.295452835181507
186 16 2 0.0 1.8882273148492932 9.394548999581428 5.603407738730255
187 16 1 0.0 1.6906313503388695 9.30730064815997 6.0076673478193845
188 16 1 0.0 1.71688681945687 9.208339447059528 6.482310343834319
189 16 1 0.0 1.9492420937288863 10.160533820285606 5.308832659571486
190 16 1 0.0 1.719932703033778 10.10510594580164 5.744153126457775
191 16 1 0.0 1.8919893178518414 9.986132489908611 6.140421657910544
192 16 1 0.0 1.8323927221042116 9.908585954000879 6.622398920655891
193 17 5 8.861242189860825 3.377207043658677 0.6511385422876316 3.938120288648192
194 17 6 -8.861242189860825 3.3522576140799383 0.4823902592232863 4.351076957147521
195 17 3 0.0 3.275824053552533 0.5636197425830224 4.842033946926853
196 17 3 0.0 3.2822754779799177 0.9897746132913696 4.842823620312097
197 17 1 0.0 3.170406480806301 0.49937449014775265 5.38856047924349
198 17 2 0.0 3.484711389727538 0.5067242583381069 5.718186399174997
199 17 1 0.0 3.2770184440849226 0.49043303217633216 6.126451641190408
200 17 1 0.0 3.2897023334747715 0.5006400893468979 6.611738749592996
201 17 1 0.0 3.4886986577292496 1.1920730108449578 5.262652410120924
202 17 1 0.0 3.2450500051733293 1.2102631360710059 5.693307037720365
203 17 1 0.0 3.408320066158285 1.1985888575465355 6.110432329852619
204 17 1 0.0 3.3332905986530657 1.222554412688407 6.595884214628152
205 18 5 8.861242189860825 3.1423184296511715 1.8387761951131476 3.6768840103300087
206 18 6 -8.861242189860825 3.048058825754947 1.9934007576054684 4.085342134106386
207 18 3 0.0 3.124484274983477 1.9628091106282608 4.582033573332399
208 18 3 0.0 3.3440865546267537 1.5977740652804715 4.595242386036786
209 18 1 0.0 3.1450726974784855 2.0707584744485774 5.1314465503726066
210 18 2 0.0 2.86188227468669 1.8968172265716874 5.442962952318259
211 18 1 0.0 3.0031863977868825 2.018778817840711 5.861580661699356
212 18 1 0.0 2.966998232393297 2.0013280066900703 6.345475824439709
213 18 1 0.0 3.249489106106133 1.315098777504502 5.0086881357514015
214 18 1 0.0 3.4380290571387158 1.42672840192526 5.452704428962788
215 18 1 0.0 3.2671111838917692 1.3484650026851404 5.859458447841075
216 18 1 0.0 3.312448142430171 1.365745986103641 6.348859335725507
217 19 5 8.861242189860825 3.196642757127534 2.8789622008489775 3.943889788035704
218 19 6 -8.861242189860825 3.1519902887467475 2.759424566956731 4.372082009219694
219 19 3 0.0 3.2232419420665606 2.8734281309809226 4.8572680284370096
220 19 3 0.0 3.473117338838948 3.2156255964862006 4.811296309095093
221 19 1 0.0 3.1975244180866715 2.8866447100485324 5.416817399474383
222 19 2 0.0 3.5107999660838405 2.711401828561305 5.697251358670231
223 19 1 0.0 3.406619393189701 2.822297335068597 6.12960638226242
224 19 1 0.0 3.507418816518985 2.8265709045105125 6.6045693866202235
225 19 1 0.0 3.8277258220952928 3.262264830244595 5.17443400890053
226 19 1 0.0 3.718479953772779 3.4223029282984347 5.630078719444433
227 19 1 0.0 3.9152892999286486 3.320413067273627 6.019528906779811
228 19 1 0.0 3.9538378859103904 3.387070632447506 6.505263481196117
229 20 5 8.861242189860825 2.9044729891329224 4.367058312289459 3.8165718785477116
230 20 6 -8.861242189860825 3.0601885887441447 4.164122358259124 4.182906858765337
231 20 3 0.0 3.0447616496842818 4.115559014271942 4.683788776114122
232 20 3 0.0 2.802840574291346 4.453563261519131 4.778009476669961
233 20 1 0.0 3.1011851536247375 3.9278868411487693 5.208695540471884
234 20 2 0.0 3.407995968650316 4.079751894211451 5.509193413004686
235 20 1 0.0 3.3295543852821443 3.8863102999696717 5.91724921699889
236 20 1 0.0 3.424893070480551 3.8367939890953724 6.3907756816341
237 20 1 0.0 2.9280191081834857 4.680843111802135 5.216718478003269
238 20 1 0.0 2.8052860580239267 4.489654261284886 5.656652992058818
239 20 1 0.0 3.0198633523328 4.523354057009026 6.048581326661907
240 20 1 0.0 3.037729531994952 4.43147297066557 6.531391814178612
241 21 5 8.861242189860825 3.099108319647194 6.322924256566702 3.7482981693386317
242 21 6 -8.861242189860825 3.2002380532488788 6.454489394421283 4.163141583911517
243 21 3 0.0 3.245067497296081 6.33539561002941 4.65026176971848
244 21 3 0.0 3.0609952807911567 5.951039766506178 4.644079298517195
245 21 1 0.0 3.378122393707946 6.334798019649271 5.194529723080418
246 21 2 0.0 3.095918748988676 6.45040381877 5.532895271078361
247 21 1 0.0 3.299154559236711 6.367310552342481 5.935229691759333
248 21 1 0.0 3.2926475861772424 6.350095031499315 6.420440911530252
249 21 1 0.0 2.796956296298078 5.84207480305826 5.066218416524015
250 21 1 0.0 3.018852224428016 5.7120373138358795 5.489315808736448
251 21 1 0.0 2.883439373860443 5.7794497912530405 5.911104652494982
252 21 1 0.0 2.950837613013142 5.713099117954544 6.393724965755256
253 22 5 8.861242189860825 3.4601307792957328 7.2792851520717194 3.931920454737053
254 22 6 -8.861242189860825 3.309208013847877 7.429993591953369 4.324528340737251
255 22 3 0.0 3.351960973752528 7.43296808339723 4.826168072791053
256 22 3 0.0 3.631258970009057 7.114463774078953 4.873049332612229
257 22 1 0.0 3.311324540759556 7.564032944948759 5.369401217960154
258 22 2 0.0 3.0407332538490124 7.353921678405594 5.669615230082929
259 22 1 0.0 3.1259705181167323 7.515531781485449 6.089971097081519
260 22 1 0.0 3.0568662787012593 7.510556148369835 6.570562909140141
261 22 1 0.0 3.5572921356024594 6.8355499643132935 5.293200945334104
262 22 1 0.0 3.6887849197190112 6.996532797439858 5.742592901186331
263 22 1 0.0 3.5041376813539804 6.90444021735345 6.140350698076238
264 22 1 0.0 3.5084379369343566 6.948556058279734 6.630149229761259
265 23 5 8.861242189860825 3.059652512719758 8.453544841637903 3.908101623875266
266 23 6 -8.861242189860825 2.882974874884339 8.505611304224711 4.315171351187586
267 23 3 0.0 2.954194460159269 8.617641269415632 4.800821576686923
268 23 3 0.0 3.3803059212874875 8.61652210196136 4.809652683584142
269 23 1 0.0 2.8786179849033613 8.760722680883305 5.337242562210922
270 23 2 0.0 2.883297427032755 8.470681759274903 5.688453622072422
271 23 1 0.0 2.8571096293018687 8.706567504362683 6.080568893481038
272 23 1 0.0 2.8584136002825504 8.728432521703443 6.565634727491486
273 23 1 0.0 3.5770159765133944 8.442881756430001 5.246625872829992
274 23 1 0.0 3.5844871113773813 8.716642266697471 5.6591283818924305
275 23 1 0.0 3.566848318580152 8.583210827404688 6.086529639408631
276 23 1 0.0 3.580935479802185 8.6927434664396 6.565770136585408
277 24 5 8.861242189860825 3.586642233552836 9.849440725854544 3.9633899894902793
278 24 6 -8.861242189860825 3.7385632004719596 9.810421430821197 4.381754879935203
279 24 3 0.0 3.6388289388546626 9.710798598402144 4.865084428251284
280 24 3 0.0 3.2129848681514908 9.70735134285035 4.847904144034825
281 24 1 0.0 3.6827990868325697 9.583169106831557 5.408875662640421
282 24 2 0.0 3.6538461407533123 9.882550726798426 5.7509680690081675
283 24 1 0.0 3.658246555427057 9.657688988893446 6.150342713589559
284 24 1 0.0 3.62746371217136 9.648964853003582 6.634847562545637
285 24 1 0.0 2.9882382017839766 9.890541318272144 5.267095928788023
286 24 1 0.0 2.9581600532850145 9.627994094369932 5.685812079688588
287 24 1 0.0 2.948322338615713 9.773150296598152 6.109627850105737
288 24 1 0.0 2.9059791007599065 9.676494284023393 6.589973524282706
289 25 5 8.861242189860825 4.483582436543291 0.48715695873070336 3.7125918885105875
290 25 6 -8.861242189860825 4.504297602736261 0.38134872006432335 4.1461898193767865
291 25 3 0.0 4.36433074950049 0.48506802202621196 4.618556912166689
292 25 3 0.0 4.184660358637557 0.8662359962094768 4.55468403534223
293 25 1 0.0 4.257564671960675 0.45428702887532557 5.167724557588043
294 25 2 0.0 4.512232215743683 0.6433372684108477 5.494679127873003
295 25 1 0.0 4.302968981615435 0.5915951661971423 5.899171309822365
296 25 1 0.0 4.274291674865999 0.6708405249476851 6.377362095850263
297 25 1 0.0 4.251079548472864 1.1927193912649001 4.940415117208373
298 25 1 0.0 3.9929047271690057 1.1586981079598981 5.361541308210392
299 25 1 0.0 4.113886953183656 1.2758818674103085 5.776773988088944
300 25 1 0.0 4.000497322154205 1.3286655308152844 6.252404073041577
301 26 5 8.861242189860825 4.115558907743368 1.7660449269549459 3.820656159949478
302 26 6 -8.861242189860825 3.9741589876754833 1.7618197387836587 4.244472013264625
303 26 3 0.0 4.070263915666754 1.863610030353573 4.728085147198014
304 26 3 0.0 4.486614964645191 1.9498105082922317 4.6985639699290225
305 26 1 0.0 4.0222362847026565 1.9632005794149536 5.277363434436693
306 26 2 0.0 4.1204706860968034 1.664464156949869 5.606910690881998
307 26 1 0.0 4.087366180191552 1.8715857970982854 6.0144484062268
308 26 1 0.0 4.13335104090459 1.8708764513288487 6.497825621310077
309 26 1 0.0 4.757330326450891 1.8004278130600309 5.10376686576084
310 26 1 0.0 4.751498547521487 2.0505604293957904 5.531035656360404
311 26 1 0.0 4.804310340144637 1.8968063503395496 5.948597039468341
312 26 1 0.0 4.844593145113941 1.9846919624798274 6.430801058595128
313 27 5 8.861242189860825 4.274418350833047 3.6450356531254866 3.769040409423151
314 27 6 -8.861242189860825 4.493280900446098 3.6431555533500464 4.158562317322107
315 27 3 0.0 4.51142912461948 3.490001762574523 4.637825963226331
316 27 3 0.0 4.1170744533565715 3.3325427892864314 4.674449497652012
317 27 1 0.0 4.681435676772439 3.360122084516457 5.155668225969363
318 27 2 0.0 4.602110926453111 3.6108733996138476 5.527590534951812
319 27 1 0.0 4.747526203968443 3.3833838164316123 5.897975683366505
320 27 1 0.0 4.7973842169175365 3.3398185286271396 6.379000513173827
321 27 1 0.0 3.9100837732873117 3.400066170125023 5.135303959437413
322 27 1 0.0 4.039992958926405 3.12400430687191 5.525268580864376
323 27 1 0.0 4.045433316897313 3.2342066420521514 5.959564285143714
324 27 1 0.0 4.115023073849022 3.1048656944535855 6.428920744842736
325 28 5 8.861242189860825 5.021626846374347 4.304642677114243 3.631650162521744
326 28 6 -8.861242189860825 5.01138927048518 4.136472790991637 4.045468659659023
327 28 3 0.0 4.847149426835944 4.177752751253957 4.519599783499027
328 28 3 0.0 4.687552192835299 4.572587198716898 4.502726719591632
329 28 1 0.0 4.705787495836248 4.073377440627266 5.051628134835538
330 28 2 0.0 4.947518553562772 4.200396593696479 5.416219786466684
331 28 1 0.0 4.711933924006494 4.101268716303908 5.796687679721735
332 28 1 0.0 4.65731767251079 4.112000080157992 6.2790470328499515
333 28 1 0.0 4.743600339827155 4.836286402470154 4.935291996401498
334 28 1 0.0 4.458947631089624 4.754697728431767 5.332123293677698
335 28 1 0.0 4.558997771491425 4.804584418825972 5.766045174269826
336 28 1 0.0 4.418968555533747 4.793735964643942 6.237363995217633
337 29 5 8.861242189860825 4.6651374560628005 5.914246094617178 3.6460580519503285
338 29 6 -8.861242189860825 4.749536431576295 6.130040406421151 4.028080688788586
339 29 3 0.0 4.769146219988686 6.116899483322022 4.530994057365614
340 29 3 0.0 4.577635485710544 5.741960602159582 4.59728653309666
341 29 1 0.0 4.876660298582658 6.230783772579768 5.0689556351707346
342 29 2 0.0 4.581456564304756 6.418673808901428 5.360583705621022
343 29 1 0.0 4.763962644166786 6.421021181597656 5.78102192012142
344 29 1 0.0 4.734503201275077 6.507543368455789 6.257902088563847
345 29 1 0.0 4.292015751850393 5.728080878473342 5.019210820668457
346 29 1 0.0 4.491217467342252 5.688788506018904 5.470801056206018
347 29 1 0.0 4.3377283854896485 5.84582954527071 5.861398194792918
348 29 1 0.0 4.3811803718942635 5.8830289800483735 6.349860504689197
349 30 5 8.861242189860825 4.598862506661558 6.789898740271379 3.637821761142102
350 30 6 -8.861242189860825 4.695036128801874 6.6908123459421285 4.062750211583789
351 30 3 0.0 4.555106241782812 6.7014826320533345 4.546263247259257
352 30 3 0.0 4.21626674730037 6.957981648132196 4.513917149826877
353 30 1 0.0 4.511654714215839 6.6057770168040255 5.096612198009665
354 30 2 0.0 4.6719695178324585 6.879872704050212 5.423209136038082
355 30 1 0.0 4.537732149236262 6.723118977866185 5.832465620112866
356 30 1 0.0 4.507968513769727 6.763476766379331 6.315429405047126
357 30 1 0.0 4.15061960625356 7.264529468369676 4.915800553717793
358 30 1 0.0 3.9660461459491336 7.1002319554208855 5.344866888695219
359 30 1 0.0 4.047053006359457 7.245699482809565 5.760876501530551
360 30 1 0.0 3.9543211740645416 7.22346561751351 6.243342835871837
361 31 5 8.861242189860825 4.150787595709264 8.343705860512506 3.7198883914262004
362 31 6 -8.861242189860825 4.019658312880306 8.309579611613282 4.145649095874561
363 31 3 0.0 4.074028824938697 8.460269650098349 4.622949256858032
364 31 3 0.0 4.434054788653189 8.684905317712694 4.583321733890346
365 31 1 0.0 3.994096093001564 8.561576608017498 5.168182442084739
366 31 2 0.0 4.190402125760781 8.3311275310719 5.508552837966036
367 31 1 0.0 4.086930329241874 8.531885530973852 5.907391256825077
368 31 1 0.0 4.130139688787454 8.569130879321637 6.389588703854813
369 31 1 0.0 4.739790514020171 8.657867015987485 4.990244306398999
370 31 1 0.0 4.646845211206106 8.909294586161385 5.406542639883675
371 31 1 0.0 4.749925685372684 8.802687484431894 5.829385698991836
372 31 1 0.0 4.7568471647756265 8.920819546569646 6.3067369431270635
373 32 5 8.861242189860825 4.633129971907883 9.265171551071179 3.6880755156845293
374 32 6 -8.861242189860825 4.856975718781205 9.370172897127704 4.060230679647863
375 32 3 0.0 4.880993256663886 9.355786631988831 4.562918731230927
376 32 3 0.0 4.486846874655888 9.216770051288561 4.646424647967747
377 32 1 0.0 5.057395722320204 9.373641733757578 5.0944212552902455
378 32 2 0.0 4.983327368370782 9.7180905699304 5.383149016611431
379 32 1 0.0 5.133062656478187 9.601417142044657 5.800340730668943
380 32 1 0.0 5.189015643242104 9.692640742292813 6.273961001221042
381 32 1 0.0 4.285922165287961 9.410513474649045 5.072903405484335
382 32 1 0.0 4.4203130836407665 9.252683145579415 5.52255618609503
383 32 1 0.0 4.4315403425990665 9.47892972627223 5.909174013297305
384 32 1 0.0 4.5069124707772295 9.484400179099191 6.3951332890594355
385 33 5 8.861242189860825 5.429563817205216 0.613669319723964 3.917395335301663
386 33 6 -8.861242189860825 5.3722954592058345 0.38045305500979476 4.294174018584513
387 33 3 0.0 5.385996528658925 0.37130195566452107 4.797371417257821
388 33 3 0.0 5.5787014172543286 0.7449283475457908 4.867502462386656
389 33 1 0.0 5.315255266882454 0.23280804210687586 5.335652642473774
390 33 2 0.0 5.630539258375666 0.03535821325265753 5.598529822443203
391 33 1 0.0 5.476350495119236 0.012671663206262673 6.029567427867495
392 33 1 0.0 5.538022311274959 10.279217046136235 6.499144622898445
393 33 1 0.0 5.8915727021327235 0.7432244565895572 5.269870502117784
394 33 1 0.0 5.7224838715885 0.7605953104842513 5.734914774892994
395 33 1 0.0 5.902706693451822 0.5881543359879465 6.107165706018629
396 33 1 0.0 5.892032832739674 0.5291020703211923 6.595290894752639
397 34 5 8.861242189860825 5.700094790944309 2.1558490863683764 3.8464742245691554
398 34 6 -8.861242189860825 5.8279419467882105 1.9651441818607618 4.229773600085084
399 34 3 0.0 5.781303985617008 1.938806914319102 4.730383560904084
400 34 3 0.0 5.543731916267648 2.28661617310282 4.795486937613968
401 34 1 0.0 5.801039427588284 1.7727585933738352 5.265145222835531
402 34 2 0.0 6.093496738138585 1.9297097231280016 5.577122636007875
403 34 1 0.0 5.985471394827494 1.7562414333368526 5.987392728991653
404 34 1 0.0 6.0509640193690055 1.724953089275614 6.467497299168247
405 34 1 0.0 5.648812070721276 2.5295026128880886 5.231096535822453
406 34 1 0.0 5.49475226817941 2.3607936660184117 5.670370736416745
407 34 1 0.0 5.686418770950349 2.40604376797585 6.0728670605215935
408 34 1 0.0 5.672869397081582 2.334813437524087 6.559292754488297
409 35 5 8.861242189860825 5.712373266628174 2.877530301276498 3.8825000363555273
410 35 6 -8.861242189860825 5.4711532299621295 2.9336542476438 4.254379941279854
411 35 3 0.0 5.46214061062718 3.0464559433946063 4.744964932982041
412 35 3 0.0 5.880764703743765 3.0392298317710327 4.82466355444293
413 35 1 0.0 5.300402889217061 3.1926101404508724 5.261115519328824
414 35 2 0.0 5.242217142102649 2.903843134841691 5.608567497678892
415 35 1 0.0 5.154584671944803 3.141541795899703 5.990538921037662
416 35 1 0.0 5.075401164492891 3.1651937911762578 6.469014832568151
417 35 1 0.0 5.999347112786383 2.8644031700461 5.288522621572898
418 35 1 0.0 5.9420655549621975 3.139563395594429 5.696155579306072
419 35 1 0.0 5.851507822023394 3.0079941317355807 6.114815031297952
420 35 1 0.0 5.787197811782935 3.1190981252275183 6.589564888035696
421 36 5 8.861242189860825 5.665845027815917 4.526408928355144 3.879524424219639
422 36 6 -8.861242189860825 5.458445237173672 4.535380219299051 4.2751713753160505
423 36 3 0.0 5.495550780670229 4.533893823490009 4.777267036743526
424 36 3 0.0 5.909660625580259 4.440457549403679 4.815120931168012
425 36 1 0.0 5.389957293187476 4.583594346711186 5.32527382595603