Lipid soup setup

4400 atoms
1408 bonds
1024 angles
0 dihedrals
0 impropers

6 atom types
2 bond types
3 angle types
0 dihedral types
0 improper types

0 11.800943439326602 xlo xhi
0 11.800943439326602 ylo yhi
0 10.531687499999997 zlo zhi

Masses

1 1
2 1
3 1
4 1
5 1
6 1

Atoms

1 1 5 8.861242189860825 0.6300932488969516 0.7547161092471154 2.059624335932635
2 1 6 -8.861242189860825 0.7662300768616483 0.5697045666732905 2.4428594599983935
3 1 3 0.0 0.721309886922995 0.5416945820375711 2.943535703944071
4 1 3 0.0 0.4695051684192336 0.8793190554317798 3.0087608294262855
5 1 1 0.0 0.7485751517469647 0.37688225924570806 3.478348821977143
6 1 2 0.0 1.0345877255785865 0.5460576359500936 3.789911562821217
7 1 1 0.0 0.9343695120027187 0.36843777999023286 4.20038661443084
8 1 1 0.0 1.0016650928497857 0.34015019164121346 4.680428029093923
9 1 1 0.0 0.5648603992188503 1.126597155075463 3.4441368794550846
10 1 1 0.0 0.41848272957378424 0.9518259095576516 3.8836679299967964
11 1 1 0.0 0.6085584410484233 1.00523670509292 4.28591837655617
12 1 1 0.0 0.5985551122190754 0.9337465211397229 4.772391796457158
13 2 5 8.861242189860825 0.7126527745292573 2.390296927423543 2.3947882336475192
14 2 6 -8.861242189860825 0.562108136174581 2.2320098089918283 2.784548630728569
15 2 3 0.0 0.5450958847070279 2.276119325224604 3.285791104819387
16 2 3 0.0 0.8454452372805916 2.5738575286392815 3.3386347130013343
17 2 1 0.0 0.404202294122946 2.2295666036154094 3.826081219362795
18 2 2 0.0 0.6229237087126759 1.972795817273308 4.132225871506611
19 2 1 0.0 0.44695981414864006 2.0497029132175304 4.548404052050408
20 2 1 0.0 0.44495002446118875 1.9825516526565454 5.029294176297481
21 2 1 0.0 1.1185012069209976 2.517808515368503 3.7653551473585707
22 2 1 0.0 0.939773245773987 2.641020407994993 4.2103653722304255
23 2 1 0.0 1.0334112473873212 2.463398380557191 4.610951506479057
24 2 1 0.0 0.977875519217338 2.4666588785012786 5.099594989306034
25 3 5 8.861242189860825 0.4921300552464737 3.5085273080913844 2.148124792869913
26 3 6 -8.861242189860825 0.6304908085124953 3.6693176302993473 2.5413606525921058
27 3 3 0.0 0.7141544642310247 3.587341293603386 3.0310129342049774
28 3 3 0.0 0.5230004106791564 3.208483645352362 3.070727269929481
29 3 1 0.0 0.8927861942341224 3.625657531515712 3.5606865493479005
30 3 2 0.0 0.642481540990333 3.774366548099329 3.911012184873437
31 3 1 0.0 0.8774537089737278 3.7176434726508116 4.300438486684586
32 3 1 0.0 0.9117351938277243 3.7383638879006633 4.784343525753163
33 3 1 0.0 0.293648656149935 3.139422687846858 3.5206380837422966
34 3 1 0.0 0.5480830501847018 3.03705094012938 3.932878449575506
35 3 1 0.0 0.450170807241105 3.140471338864545 4.357736454956986
36 3 1 0.0 0.556932303251855 3.1101365008099906 4.836849261954715
37 4 5 8.861242189860825 0.9016160137950676 5.310722991526867 2.0797072693552856
38 4 6 -8.861242189860825 1.0796189759832762 5.300075314232762 2.489381822570392
39 4 3 0.0 1.048561144200113 5.137097209603206 2.964726573726072
40 4 3 0.0 0.6522754267835841 4.980385521042812 2.9577055246689303
41 4 1 0.0 1.1646738912487866 4.9960373611908695 3.4943977139337736
42 4 2 0.0 1.0482436806265647 5.2394312364684 3.8614103424453585
43 4 1 0.0 1.1547714925053327 5.003885807032277 4.239897393116233
44 4 1 0.0 1.1552543875039318 4.950319094108422 4.722493514864881
45 4 1 0.0 0.399483314414689 5.039247434947087 3.3963657651267547
46 4 1 0.0 0.48851161883658595 4.754797703371841 3.791740607573009
47 4 1 0.0 0.44981958343167683 4.856084633128983 4.226517326344971
48 4 1 0.0 0.47098346868008895 4.716925975505458 4.697743661802893
49 5 5 8.861242189860825 0.5367085223395622 6.406237040379714 2.422016352237595
50 5 6 -8.861242189860825 0.5031132885343621 6.580568619523799 2.8320304104236973
51 5 3 0.0 0.6723073084013478 6.5936392060671585 3.306036346424115
52 5 3 0.0 0.928331619401316 6.2530259886526105 3.296849040554209
53 5 1 0.0 0.7818188699952667 6.7427989806251745 3.834893744180155
54 5 2 0.0 0.5809152425403519 6.5659337904637365 4.203473829018914
55 5 1 0.0 0.7828592584678663 6.730929435392005 4.580405285842612
56 5 1 0.0 0.8382572610285612 6.745428410514613 5.062576918853681
57 5 1 0.0 0.9420581864698245 5.993529852838468 3.7353290519537716
58 5 1 0.0 1.1959289687678605 6.154600481415451 4.128730670310976
59 5 1 0.0 1.112003235467998 6.090318627300795 4.5641743813129585
60 5 1 0.0 1.2443633849826696 6.147436872211808 5.034371784727984
61 6 5 8.861242189860825 1.0560585966673413 7.820903722558076 2.335458775686249
62 6 6 -8.861242189860825 1.0382636131760254 8.06088977911184 2.7119182002645843
63 6 3 0.0 0.9745671305671364 8.068472987373019 3.2112821326933214
64 6 3 0.0 0.8386195264606126 7.668694279598777 3.2691220154534
65 6 1 0.0 0.9695959758184263 8.21741270263307 3.751396765404699
66 6 2 0.0 0.6026749153070997 8.361640693258485 3.9795678942280674
67 6 1 0.0 0.7086946635860201 8.409639533106493 4.422894180281108
68 6 1 0.0 0.5853838256801647 8.506029602634731 4.882537557693618
69 6 1 0.0 0.4920487942583229 7.620360518149928 3.639721473936401
70 6 1 0.0 0.6158536254194347 7.631293246780667 4.1190040566021215
71 6 1 0.0 0.37501394838847624 7.772865868565077 4.469347250710739
72 6 1 0.0 0.32868915471116844 7.833613894974777 4.955177459773097
73 7 5 8.861242189860825 0.39536614713011764 9.750628747932803 2.089812488111711
74 7 6 -8.861242189860825 0.24810785044038555 9.878575260525134 2.491778097465338
75 7 3 0.0 0.3360457044713422 9.920259792587256 2.9857501792373355
76 7 3 0.0 0.6925014178397038 9.688067018155431 3.011751298412288
77 7 1 0.0 0.3141524431100421 10.066160838792468 3.5262732013681393
78 7 2 0.0 0.13824185501704706 9.810067199058413 3.859389329226986
79 7 1 0.0 0.21746710134588582 10.011231068719628 4.2635411935608305
80 7 1 0.0 0.19811346257988582 10.015111985803593 4.748699948812124
81 7 1 0.0 0.7348697601817666 9.42319083781444 3.4451528630126838
82 7 1 0.0 0.8614258267517834 9.63733679441621 3.8732696999933216
83 7 1 0.0 0.7462164536740832 9.522702877618723 4.290849364733148
84 7 1 0.0 0.7852802204633056 9.593444554815429 4.7759647515135795
85 8 5 8.861242189860825 1.2183367785500607 10.668395926674998 2.304850961426416
86 8 6 -8.861242189860825 1.3174614973162786 10.607706595465102 2.736270435185247
87 8 3 0.0 1.1839312342515909 10.667705353612412 3.2179849791027264
88 8 3 0.0 0.8509400590239466 10.92836690278058 3.1648563399764575
89 8 1 0.0 1.1451432245580997 10.625772248803782 3.7753615776923635
90 8 2 0.0 1.3160682544380853 10.925529523077767 4.072725080219974
91 8 1 0.0 1.1832899681871376 10.811723584979278 4.496399963486904
92 8 1 0.0 1.1605885434113656 10.89846062487146 4.973610581423863
93 8 1 0.0 0.7977103092501241 11.273212213971792 3.5363932676584455
94 8 1 0.0 0.6146836167272581 11.155036967834661 3.9810220969592875
95 8 1 0.0 0.7043813342459522 11.337254017268304 4.380444401415549
96 8 1 0.0 0.6172320468175096 11.363228303645517 4.8637637983027435
97 9 5 8.861242189860825 2.266327278812934 1.2156571996377257 2.452615129637568
98 9 6 -8.861242189860825 2.0782285765352886 1.1402798820513629 2.8508221176808264
99 9 3 0.0 2.1341220954704787 1.1039555569195478 3.3498567276025524
100 9 3 0.0 2.5597316033878568 1.1092781899447268 3.371729876384844
101 9 1 0.0 2.041155445027343 1.0790239747279937 3.9018233803498323
102 9 2 0.0 2.0458599782460207 0.6976559762441276 4.150883933337927
103 9 1 0.0 2.0030202497169474 0.8053442645128976 4.594336593479638
104 9 1 0.0 1.991755563557379 0.6816676812295712 5.063746704407142
105 9 1 0.0 2.7507428252811024 0.8174986942224008 3.7434432370941324
106 9 1 0.0 2.7399057814396914 0.9559679829269324 4.218698715113385
107 9 1 0.0 2.7157634982315373 0.7008746583748865 4.586301023131164
108 9 1 0.0 2.7147992638745997 0.6628677102303375 5.076629324786632
109 10 5 8.861242189860825 2.343484100488734 2.5724148232251856 2.473713380750464
110 10 6 -8.861242189860825 2.26004700421331 2.7438909547123527 2.8777750770628647
111 10 3 0.0 2.211786398380673 2.6670191041487463 3.3729929245507786
112 10 3 0.0 2.2139445072162545 2.2408365726237975 3.3767360086916263
113 10 1 0.0 2.174613505647219 2.736527109354087 3.927716622339532
114 10 2 0.0 1.7875381232003935 2.723955341685002 4.1675278833688045
115 10 1 0.0 1.8851560437164394 2.7470553357265324 4.614763172033358
116 10 1 0.0 1.7506758653258456 2.7391739444603793 5.081262483865247
117 10 1 0.0 1.9124190456133614 2.036251934506016 3.7331331262365044
118 10 1 0.0 2.0398703085820213 2.0257998441498017 4.211469706685613
119 10 1 0.0 1.776457902533847 2.0360774950507765 4.573816481421343
120 10 1 0.0 1.7270721410799361 2.0163937745212768 5.062734571668806
121 11 5 8.861242189860825 2.2037948316156974 3.3493436655589126 2.1589613067313955
122 11 6 -8.861242189860825 2.266521590225946 3.183957281326763 2.569259204357499
123 11 3 0.0 2.2494419556561556 3.2577550167172045 3.066995343581058
124 11 3 0.0 2.1862930478692677 3.679229272031545 3.07167357424987
125 11 1 0.0 2.2358302454970813 3.184004095553381 3.6222494211025653
126 11 2 0.0 2.5889119796934366 3.24664794388634 3.9031477642768584
127 11 1 0.0 2.447720018437666 3.201792573484629 4.336893193509648
128 11 1 0.0 2.5283942147737433 3.219992856732352 4.815358517627407
129 11 1 0.0 2.415265704971852 3.9177213655369045 3.4595967975527966
130 11 1 0.0 2.2365805069841667 3.901296486599381 3.9210735339034577
131 11 1 0.0 2.457971805563638 3.9216256567505865 4.310123053481332
132 11 1 0.0 2.450815860586902 3.93909146943115 4.801560780053468
133 12 5 8.861242189860825 1.789039997897546 5.143720415298793 2.2907617383711836
134 12 6 -8.861242189860825 1.7097946316017585 5.230213465420117 2.721889087692576
135 12 3 0.0 1.8857927806174053 5.24991470914912 3.193180501250648
136 12 3 0.0 2.260313528481401 5.055072576688736 3.134691432807653
137 12 1 0.0 1.953785092477379 5.358671995985218 3.7385981996417197
138 12 2 0.0 1.8683856623536983 5.065289310961917 4.076427119981883
139 12 1 0.0 2.004299866868402 5.247984865065895 4.474210899288226
140 12 1 0.0 2.0771773969115497 5.219502924713199 4.953425138784965
141 12 1 0.0 2.408144651038055 4.76951613845253 3.5301593371038296
142 12 1 0.0 2.593699195940091 4.96854576333177 3.943820640717662
143 12 1 0.0 2.570815137773319 4.816636364211974 4.364756223996622
144 12 1 0.0 2.694709984397801 4.860624844050093 4.838657460417166
145 13 5 8.861242189860825 2.0224724548359845 6.66002939909293 2.251915206668328
146 13 6 -8.861242189860825 2.2204562317634364 6.507732013918235 2.622373838196904
147 13 3 0.0 2.197481489856587 6.434444137874853 3.1199480863391615
148 13 3 0.0 1.8481239472829591 6.662609451082096 3.2067819252822956
149 13 1 0.0 2.2891620969596853 6.254798637061004 3.642684853698007
150 13 2 0.0 2.507702139971251 6.490273053000891 3.9656196628985687
151 13 1 0.0 2.4812045490403354 6.263549509393778 4.363082345431852
152 13 1 0.0 2.5635689122354672 6.229123085661686 4.84036588345968
153 13 1 0.0 1.8633318131610666 6.8993377326708805 3.6579136411418363
154 13 1 0.0 1.792990237865543 6.657889330449037 4.084427048516483
155 13 1 0.0 1.961936114004214 6.7465250393906215 4.489874841660897
156 13 1 0.0 1.9861811068374735 6.645061015837764 4.970483345025614
157 14 5 8.861242189860825 1.7877811115158642 8.25886169153742 2.4070140401428226
158 14 6 -8.861242189860825 1.6771041559191808 8.253451687148281 2.839856979884125
159 14 3 0.0 1.826222147378015 8.28722747364651 3.319546572042094
160 14 3 0.0 2.2481417559661434 8.27106961330861 3.261469160531361
161 14 1 0.0 1.8397314720828413 8.348592127960362 3.876308141277245
162 14 2 0.0 1.8807966717955877 8.00805984579637 4.176051791972078
163 14 1 0.0 1.9266280635584945 8.181651985484866 4.5977715142105655
164 14 1 0.0 2.0016444084991956 8.128716449646507 5.074572331832689
165 14 1 0.0 2.4980487401062685 8.026154163175825 3.63208257786425
166 14 1 0.0 2.582253811574507 8.232939422318646 4.074019583964818
167 14 1 0.0 2.6213491198648184 8.036094599245827 4.474657304890633
168 14 1 0.0 2.7129688781855164 8.070224677127442 4.956640975701735
169 15 5 8.861242189860825 2.193965341994769 10.045179685814896 2.2789048685451236
170 15 6 -8.861242189860825 1.9949564111654718 9.961020833655418 2.6699859345466788
171 15 3 0.0 2.023332592885213 9.960934531541744 3.1726526917705105
172 15 3 0.0 2.4401534256514967 10.037570703580688 3.2177914644264507
173 15 1 0.0 1.8998331046170924 9.950310676179027 3.7190651529433607
174 15 2 0.0 1.9498165876187659 9.588699718084444 3.991524339553154
175 15 1 0.0 1.8613352013965732 9.711205596878239 4.424243215395913
176 15 1 0.0 1.8396165883589766 9.612435756699469 4.899155273746368
177 15 1 0.0 2.651134490099271 9.801441024351828 3.617192451624377
178 15 1 0.0 2.587123039597076 9.961229629057774 4.081443559142281
179 15 1 0.0 2.580581836636075 9.725508143590519 4.462467842991026
180 15 1 0.0 2.553808291563767 9.713920303717122 4.953401851296442
181 16 5 8.861242189860825 2.017175993915355 11.277823822681144 2.3562102406549816
182 16 6 -8.861242189860825 1.9861332171319237 11.024679088078939 2.7230695549490127
183 16 3 0.0 1.931039261434128 11.001625642074458 3.2229818258804803
184 16 3 0.0 1.9803125395141932 11.414516946747929 3.3164865470550278
185 16 1 0.0 1.8339395450052491 10.827704976167901 3.7466752616520944
186 16 2 0.0 2.1558526364544894 10.732675607607408 4.054630165200843
187 16 1 0.0 1.9582566719440655 10.64542725618595 4.458889774289972
188 16 1 0.0 1.984512141062066 10.546466055085508 4.933532770304907
189 16 1 0.0 2.2168674153340824 11.498660428311586 3.7600550860420734
190 16 1 0.0 1.9875580246389741 11.44323255382762 4.195375552928362
191 16 1 0.0 2.1596146394570375 11.324259097934592 4.591644084381131
192 16 1 0.0 2.1000180437094076 11.24671256202686 5.073621347126478
193 17 5 8.861242189860825 3.8232492463340035 0.740346982822697 2.3893427151187794
194 17 6 -8.861242189860825 3.798299816755265 0.5715986997583518 2.8022993836181085
195 17 3 0.0 3.7218662562278597 0.6528281831180878 3.2932563733974405
196 17 3 0.0 3.7283176806552443 1.0789830538264351 3.2940460467826846
197 17 1 0.0 3.6164486834816274 0.5885829306828181 3.8397829057140775
198 17 2 0.0 3.9307535924028647 0.5959326988731722 4.169408825645585
199 17 1 0.0 3.723060646760249 0.5796414727113975 4.577674067660995
200 17 1 0.0 3.735744536150098 0.5898485298819632 5.062961176063583
201 17 1 0.0 3.934740860404576 1.281281451380023 3.7138748365915117
202 17 1 0.0 3.691092207848656 1.2994715766060714 4.144529464190953
203 17 1 0.0 3.8543622688336114 1.287797298081601 4.561654756323207
204 17 1 0.0 3.779332801328392 1.3117628532234724 5.04710664109874
205 18 5 8.861242189860825 3.5883606323264985 2.1064015167183436 2.128106436800596
206 18 6 -8.861242189860825 3.494101028430274 2.2610260792106645 2.5365645605769735
207 18 3 0.0 3.570526477658804 2.230434432233457 3.0332559998029867
208 18 3 0.0 3.7901287573020808 1.8653993868856675 3.0464648125073737
209 18 1 0.0 3.5911149001538125 2.3383837960537734 3.582668976843194
210 18 2 0.0 3.307924477362017 2.164442548176883 3.894185378788847
211 18 1 0.0 3.4492286004622095 2.286404139445907 4.312803088169943
212 18 1 0.0 3.413040435068624 2.2689533282952663 4.796698250910296
213 18 1 0.0 3.69553130878146 1.582724099109698 3.459910562221989
214 18 1 0.0 3.8840712598140428 1.694353723530456 3.903926855433375
215 18 1 0.0 3.7131533865670963 1.6160903242903364 4.310680874311663
216 18 1 0.0 3.758490345105498 1.633371307708837 4.800081762196093
217 19 5 8.861242189860825 3.6426849598028612 3.3250044035243045 2.395112214506291
218 19 6 -8.861242189860825 3.5980324914220745 3.205466769632058 2.823304435690282
219 19 3 0.0 3.669284144741888 3.3194703336562497 3.3084904549075964
220 19 3 0.0 3.919159541514275 3.6616677991615276 3.2625187355656804
221 19 1 0.0 3.6435666207619986 3.3326869127238594 3.86803982594497
222 19 2 0.0 3.9568421687591675 3.157444031236632 4.148473785140818
223 19 1 0.0 3.852661595865028 3.268339537743924 4.580828808733007
224 19 1 0.0 3.953461019194312 3.2726131071858395 5.055791813090811
225 19 1 0.0 4.27376802477062 3.708307032919922 3.6256564353711167
226 19 1 0.0 4.164522156448106 3.8683451309737618 4.08130114591502
227 19 1 0.0 4.361331502603975 3.766455269948954 4.470751333250398
228 19 1 0.0 4.399880088585717 3.833112835122833 4.956485907666705
229 20 5 8.861242189860825 3.3505151918082494 4.991517396034917 2.267794305018299
230 20 6 -8.861242189860825 3.5062307914194717 4.788581442004581 2.6341292852359253
231 20 3 0.0 3.4908038523596088 4.7400180980174 3.1350112025847103
232 20 3 0.0 3.248882776966673 5.078022345264587 3.229231903140549
233 20 1 0.0 3.5472273563000645 4.552345924894227 3.6599179669424715
234 20 2 0.0 3.854038171325643 4.704210977956908 3.9604158394752744
235 20 1 0.0 3.7755965879574713 4.51076938371513 4.368471643469478
236 20 1 0.0 3.8709352731558777 4.46125307284083 4.841998108104688
237 20 1 0.0 3.3740613108588127 5.3053021955475925 3.6679409044738565
238 20 1 0.0 3.2513282606992537 5.1141133450303435 4.107875418529406
239 20 1 0.0 3.465905555008127 5.147813140754484 4.499803753132495
240 20 1 0.0 3.4837717346702792 5.055932054411028 4.9826142406492
241 21 5 8.861242189860825 3.5451505223225213 7.12580022138229 2.1995205958092185
242 21 6 -8.861242189860825 3.6462802559242062 7.257365359236871 2.6143640103821038
243 21 3 0.0 3.6911096999714084 7.138271574844999 3.101484196189067
244 21 3 0.0 3.507037483466484 6.753915731321767 3.095301724987782
245 21 1 0.0 3.8241645963832736 7.137673984464859 3.6457521495510044
246 21 2 0.0 3.5419609516640036 7.2532797835855884 3.9841176975489487
247 21 1 0.0 3.7451967619120383 7.170186517158069 4.386452118229919
248 21 1 0.0 3.73868978885257 7.152970996314903 4.87166333800084
249 21 1 0.0 3.2429984989734053 6.644950767873849 3.5174408429946027
250 21 1 0.0 3.4648944271033435 6.514913278651468 3.940538235207035
251 21 1 0.0 3.3294815765357706 6.582325756068629 4.362327078965569
252 21 1 0.0 3.3968798156884694 6.515975082770132 4.844947392225842
253 22 5 8.861242189860825 3.9061729819710598 8.260577997957437 2.3831428812076405
254 22 6 -8.861242189860825 3.755250216523204 8.411286437839088 2.775750767207838
255 22 3 0.0 3.798003176427855 8.414260929282948 3.277390499261641
256 22 3 0.0 4.0773011726843835 8.095756619964671 3.324271759082817
257 22 1 0.0 3.757366743434883 8.545325790834479 3.8206236444307415
258 22 2 0.0 3.4867754565243394 8.335214524291311 4.120837656553516
259 22 1 0.0 3.57201272079206 8.496824627371167 4.541193523552106
260 22 1 0.0 3.5029084813765863 8.491848994255554 5.021785335610728
261 22 1 0.0 4.003334338277786 7.816842810199012 3.7444233718046913
262 22 1 0.0 4.134827122394339 7.977825643325577 4.193815327656919
263 22 1 0.0 3.950179884029308 7.885733063239169 4.591573124546826
264 22 1 0.0 3.9544801396096836 7.9298489041654525 5.0813716562318465
265 23 5 8.861242189860825 3.505694715395085 9.613254568593753 2.3593240503458532
266 23 6 -8.861242189860825 3.329017077559666 9.66532103118056 2.7663937776581733
267 23 3 0.0 3.400236662834596 9.777350996371482 3.2520440031575104
268 23 3 0.0 3.8263481239628145 9.77623182891721 3.260875110054729
269 23 1 0.0 3.3246601875786883 9.920432407839154 3.7884649886815094
270 23 2 0.0 3.329339629708082 9.630391486230753 4.139676048543009
271 23 1 0.0 3.303151831977196 9.866277231318533 4.531791319951624
272 23 1 0.0 3.3044558029578774 9.888142248659292 5.016857153962073
273 23 1 0.0 4.023058179188721 9.60259148338585 3.69784829930058
274 23 1 0.0 4.030529314052708 9.876351993653321 4.110350808363018
275 23 1 0.0 4.012890521255479 9.742920554360538 4.537752065879218
276 23 1 0.0 4.026977682477511 9.85245319339545 5.016992563055995
277 24 5 8.861242189860825 4.0326844362281635 11.187567333880525 2.4146124159608666
278 24 6 -8.861242189860825 4.1846054031472875 11.148548038847178 2.8329773064057893
279 24 3 0.0 4.08487114152999 11.048925206428125 3.3163068547218706
280 24 3 0.0 3.659027070826818 11.04547795087633 3.299126570505412
281 24 1 0.0 4.128841289507897 10.921295714857537 3.8600980891110077
282 24 2 0.0 4.09988834342864 11.220677334824407 4.202190495478754
283 24 1 0.0 4.104288758102384 10.995815596919426 4.6015651400601465
284 24 1 0.0 4.073505914846687 10.987091461029562 5.086069989016225
285 24 1 0.0 3.434280404459304 11.228667926298124 3.7183183552586097
286 24 1 0.0 3.404202255960342 10.966120702395912 4.137034506159174
287 24 1 0.0 3.3943645412910404 11.111276904624132 4.560850276576323
288 24 1 0.0 3.352021303435234 11.014620892049374 5.041195950753293
289 25 5 8.861242189860825 5.108041520288748 0.5763653992657689 2.163814314981175
290 25 6 -8.861242189860825 5.128756686481719 0.47055716059938885 2.597412245847374
291 25 3 0.0 4.9887898332459475 0.5742764625612775 3.069779338637276
292 25 3 0.0 4.809119442383015 0.9554444367445423 3.0059064618128173
293 25 1 0.0 4.882023755706133 0.5434954694103911 3.618946984058631
294 25 2 0.0 5.13669129948914 0.7325457089459132 3.9459015543435907
295 25 1 0.0 4.927428065360893 0.6808036067322077 4.350393736292952
296 25 1 0.0 4.898750758611457 0.7600489654827506 4.82858452232085
297 25 1 0.0 4.875538632218322 1.2819278317999656 3.39163754367896
298 25 1 0.0 4.617363810914464 1.2479065484949636 3.8127637346809795
299 25 1 0.0 4.738346036929114 1.365090307945374 4.227996414559532
300 25 1 0.0 4.624956405899662 1.4178739713503499 4.703626499512163
301 26 5 8.861242189860825 4.740017991488825 2.0336702485601417 2.2718785864200655
302 26 6 -8.861242189860825 4.598618071420941 2.0294450603888547 2.6956944397352123
303 26 3 0.0 4.69472299941221 2.1312353519587686 3.1793075736686016
304 26 3 0.0 5.111074048390648 2.2174358298974273 3.1497863963996093
305 26 1 0.0 4.646695368448114 2.2308259010201494 3.72858586090728
306 26 2 0.0 4.744929769842261 1.9320894785550649 4.058133117352585
307 26 1 0.0 4.711825263937009 2.1392111187034812 4.465670832697388
308 26 1 0.0 4.757810124650048 2.1385017729340445 4.949048047780664
309 26 1 0.0 5.381789410196348 2.0680531346652264 3.5549892922314275
310 26 1 0.0 5.375957631266944 2.3181857510009864 3.9822580828309917
311 26 1 0.0 5.4287694238900945 2.164431671944745 4.399819465938928
312 26 1 0.0 5.469052228859399 2.252317284085023 4.882023485065714
313 27 5 8.861242189860825 4.898877434578504 4.091077855800814 2.220262835893739
314 27 6 -8.861242189860825 5.117739984191555 4.089197756025373 2.609784743792695
315 27 3 0.0 5.135888208364937 3.93604396524985 3.0890483896969188
316 27 3 0.0 4.741533537102029 3.7785849919617585 3.1256719241226
317 27 1 0.0 5.305894760517897 3.806164287191784 3.6068906524399504
318 27 2 0.0 5.226570010198569 4.056915602289175 3.9788129614224
319 27 1 0.0 5.3719852877139 3.8294260191069394 4.3491981098370935
320 27 1 0.0 5.421843300662994 3.7858607313024666 4.830222939644416
321 27 1 0.0 4.534542857032769 3.8461083728003502 3.586526385908
322 27 1 0.0 4.664452042671862 3.570046509547237 3.9764910073349635
323 27 1 0.0 4.6698924006427704 3.6802488447274784 4.410786711614302
324 27 1 0.0 4.739482157594479 3.5509078971289125 4.880143171313324
325 28 5 8.861242189860825 5.6460859301198045 4.929101760859701 2.0828725889923314
326 28 6 -8.861242189860825 5.635848354230638 4.760931874737095 2.4966910861296103
327 28 3 0.0 5.471608510581402 4.802211834999414 2.970822209969614
328 28 3 0.0 5.312011276580757 5.197046282462355 2.953949146062219
329 28 1 0.0 5.330246579581705 4.697836524372724 3.5028505613061256
330 28 2 0.0 5.57197763730823 4.824855677441937 3.8674422129372714
331 28 1 0.0 5.336393007751951 4.725727800049365 4.247910106192323
332 28 1 0.0 5.281776756256248 4.73645916390345 4.730269459320539
333 28 1 0.0 5.368059423572612 5.460745486215612 3.386514422872085
334 28 1 0.0 5.083406714835082 5.379156812177224 3.7833457201482856
335 28 1 0.0 5.183456855236883 5.42904350257143 4.2172676007404135
336 28 1 0.0 5.043427639279204 5.4181950483894 4.68858642168822
337 29 5 8.861242189860825 5.289596539808258 6.717122059432767 2.097280478420916
338 29 6 -8.861242189860825 5.373995515321752 6.93291637123674 2.4793031152591736
339 29 3 0.0 5.393605303734143 6.91977544813761 2.9822164838362015
340 29 3 0.0 5.202094569456001 6.544836566975171 3.0485089595672465
341 29 1 0.0 5.501119382328116 7.033659737395356 3.5201780616413214
342 29 2 0.0 5.205915648050214 7.221549773717016 3.8118061320916095
343 29 1 0.0 5.3884217279122435 7.223897146413244 4.232244346592007
344 29 1 0.0 5.358962285020534 7.310419333271376 4.709124515034435
345 29 1 0.0 4.91647483559585 6.530956843288931 3.470433247139044
346 29 1 0.0 5.115676551087709 6.491664470834492 3.9220234826766056
347 29 1 0.0 4.962187469235106 6.648705510086298 4.312620621263505
348 29 1 0.0 5.005639455639721 6.685904944863962 4.801082931159784
349 30 5 8.861242189860825 5.223321590407015 7.7711915861571 2.0890441876126893
350 30 6 -8.861242189860825 5.319495212547332 7.672105191827849 2.5139726380543763
351 30 3 0.0 5.179565325528269 7.682775477939055 2.9974856737298445
352 30 3 0.0 4.840725831045828 7.9392744940179165 2.9651395762974646
353 30 1 0.0 5.136113797961297 7.587069862689746 3.5478346244802528
354 30 2 0.0 5.296428601577917 7.861165549935932 3.874431562508669
355 30 1 0.0 5.162191232981719 7.704411823751905 4.283688046583453
356 30 1 0.0 5.132427597515185 7.744769612265052 4.766651831517713
357 30 1 0.0 4.775078689999018 8.245822314255395 3.3670229801883806
358 30 1 0.0 4.590505229694592 8.081524801306607 3.7960893151658066
359 30 1 0.0 4.6715120901049145 8.226992328695285 4.212098928001138
360 30 1 0.0 4.578780257809999 8.20475846339923 4.694565262342424
361 31 5 8.861242189860825 4.775246679454722 9.503415587468355 2.1711108178967877
362 31 6 -8.861242189860825 4.644117396625763 9.469289338569132 2.5968715223451486
363 31 3 0.0 4.698487908684155 9.619979377054198 3.0741716833286192
364 31 3 0.0 5.058513872398646 9.844615044668544 3.034544160360933
365 31 1 0.0 4.618555176747021 9.721286334973348 3.6194048685553266
366 31 2 0.0 4.814861209506239 9.49083725802775 3.959775264436623
367 31 1 0.0 4.711389412987332 9.691595257929702 4.358613683295665
368 31 1 0.0 4.754598772532912 9.728840606277487 4.840811130325401
369 31 1 0.0 5.364249597765628 9.817576742943334 3.441466732869586
370 31 1 0.0 5.271304294951563 10.069004313117235 3.8577650663542626
371 31 1 0.0 5.374384769118142 9.962397211387744 4.2806081254624235
372 31 1 0.0 5.381306248521084 10.080529273525496 4.757959369597651
373 32 5 8.861242189860825 5.257589055653341 10.60329815909716 2.1392979421551166
374 32 6 -8.861242189860825 5.481434802526662 10.708299505153684 2.5114531061184504
375 32 3 0.0 5.505452340409343 10.693913240014812 3.014141157701515
376 32 3 0.0 5.111305958401346 10.554896659314542 3.097647074438334
377 32 1 0.0 5.681854806065662 10.711768341783559 3.545643681760833
378 32 2 0.0 5.6077864521162395 11.05621717795638 3.834371443082018
379 32 1 0.0 5.757521740223645 10.939543750070637 4.251563157139531
380 32 1 0.0 5.813474726987562 11.030767350318794 4.725183427691629
381 32 1 0.0 4.910381249033419 10.748640082675026 3.5241258319549225
382 32 1 0.0 5.044772167386224 10.590809753605395 3.973778612565617
383 32 1 0.0 5.055999426344524 10.817056334298211 4.360396439767892
384 32 1 0.0 5.131371554522687 10.822526787125172 4.846355715530024
385 33 5 8.861242189860825 6.232439782020806 0.7028777602590294 2.3686177617722497
386 33 6 -8.861242189860825 6.175171424021424 0.46966149554486014 2.7453964450551
387 33 3 0.0 6.1888724934745145 0.46051039619958645 3.2485938437284076
388 33 3 0.0 6.381577382069918 0.8341367880808563 3.318724888857243
389 33 1 0.0 6.118131231698044 0.32201648264194127 3.7868750689443607
390 33 2 0.0 6.433415223191256 0.12456665378772291 4.04975224891379
391 33 1 0.0 6.279226459934826 0.10188010374132805 4.480789854338082
392 33 1 0.0 6.340898276090549 11.795760535232345 4.9503670493690315
393 33 1 0.0 6.694448666948313 0.8324328971246227 3.7210929285883707
394 33 1 0.0 6.525359836404089 0.8498037510193168 4.186137201363581
395 33 1 0.0 6.705582658267412 0.6773627765230119 4.558388132489216
396 33 1 0.0 6.6949087975552635 0.6183105108562577 5.046513321223226
397 34 5 8.861242189860825 6.502970755759898 2.4234744079735724 2.2976966510397427
398 34 6 -8.861242189860825 6.630817911603799 2.232769503465958 2.6809960265556705
399 34 3 0.0 6.584179950432596 2.206432235924298 3.1816059873746716
400 34 3 0.0 6.346607881083236 2.554241494708016 3.2467093640845555
401 34 1 0.0 6.603915392403873 2.0403839149790315 3.7163676493061186
402 34 2 0.0 6.896372702954173 2.1973350447331974 4.028345062478462
403 34 1 0.0 6.788347359643082 2.023866754942049 4.43861515546224
404 34 1 0.0 6.853839984184594 1.99257841088081 4.918719725638834
405 34 1 0.0 6.451688035536865 2.797127934493285 3.6823189622930403
406 34 1 0.0 6.297628232994999 2.6284189876236077 4.121593162887332
407 34 1 0.0 6.489294735765937 2.673669089581046 4.524089486992181
408 34 1 0.0 6.475745361897171 2.6024387591292832 5.010515180958884
409 35 5 8.861242189860825 6.5152492314437636 3.3235725039518256 2.3337224628261146
410 35 6 -8.861242189860825 6.274029194777719 3.379696450319127 2.705602367750441
411 35 3 0.0 6.265016575442769 3.4924981460699334 3.196187359452628
412 35 3 0.0 6.683640668559354 3.4852720344463597 3.2758859809135177
413 35 1 0.0 6.10327885403265 3.6386523431261995 3.712337945799411
414 35 2 0.0 6.045093106918238 3.349885337517018 4.059789924149479
415 35 1 0.0 5.957460636760392 3.58758399857503 4.441761347508249
416 35 1 0.0 5.87827712930848 3.611235993851585 4.920237259038738
417 35 1 0.0 6.8022230776019725 3.310445372721427 3.7397450480434857
418 35 1 0.0 6.744941519777787 3.585605598269756 4.147378005776659
419 35 1 0.0 6.6543837868389835 3.4540363344109077 4.566037457768539
420 35 1 0.0 6.5900737765985244 3.5651403279028453 5.040787314506282
421 36 5 8.861242189860825 6.468720992631505 5.150868012100601 2.3307468506902267
422 36 6 -8.861242189860825 6.261321201989261 5.159839303044508 2.7263938017866387
423 36 3 0.0 6.298426745485817 5.158352907235466 3.228489463214113
424 36 3 0.0 6.712536590395848 5.064916633149137 3.2663433576385996