Lipid soup setup

4096 atoms
1408 bonds
1024 angles
0 dihedrals
0 impropers

6 atom types
2 bond types
3 angle types
0 dihedral types
0 improper types

0 10.373608390765556 xlo xhi
0 10.373608390765556 ylo yhi
0 12.687585882352938 zlo zhi

Masses

1 1
2 1
3 1
4 1
5 1
6 1

Atoms

1 1 5 8.861242189860825 0.5408848083618862 0.66550766871205 3.1375735271091054
2 1 6 -8.861242189860825 0.677021636326583 0.4804961261382251 3.520808651174864
3 1 3 0.0 0.6321014463879296 0.45248614150250577 4.021484895120541
4 1 3 0.0 0.38029672788416824 0.7901106148967143 4.086710020602756
5 1 1 0.0 0.6593667112118993 0.2876738187106427 4.556298013153613
6 1 2 0.0 0.9453792850435211 0.4568491954150282 4.867860753997688
7 1 1 0.0 0.8451610714676533 0.2792293394551675 5.278335805607311
8 1 1 0.0 0.9124566523147202 0.2509417511061481 5.758377220270393
9 1 1 0.0 0.475651958683785 1.0373887145403975 4.522086070631555
10 1 1 0.0 0.32927428903871886 0.8626174690225861 4.961617121173267
11 1 1 0.0 0.5193500005133579 0.9160282645578548 5.36386756773264
12 1 1 0.0 0.50934667168401 0.8445380806046574 5.850340987633628
13 2 5 8.861242189860825 0.6234443339941919 2.122671605818347 3.4727374248239897
14 2 6 -8.861242189860825 0.4728996956395155 1.9643844873866323 3.862497821905039
15 2 3 0.0 0.45588744417196236 2.008494003619408 4.363740295995857
16 2 3 0.0 0.7562367967455261 2.3062322070340855 4.416583904177804
17 2 1 0.0 0.3149938535878805 1.9619412820102131 4.904030410539265
18 2 2 0.0 0.5337152681776104 1.705170495668112 5.2101750626830805
19 2 1 0.0 0.35775137361357456 1.7820775916123344 5.626353243226879
20 2 1 0.0 0.35574158392612326 1.7149263310513494 6.10724336747395
21 2 1 0.0 1.0292927663859321 2.250183193763307 4.843304338535041
22 2 1 0.0 0.8505648052389215 2.373395086389797 5.288314563406896
23 2 1 0.0 0.9442028068522557 2.195773058951995 5.6889006976555265
24 2 1 0.0 0.8886670786822725 2.1990335568960826 6.177544180482505
25 3 5 8.861242189860825 0.4029216147114083 3.062485105416058 3.2260739840463843
26 3 6 -8.861242189860825 0.5412823679774299 3.2232754276240208 3.6193098437685767
27 3 3 0.0 0.6249460236959593 3.1412990909280594 4.108962125381448
28 3 3 0.0 0.433791970144091 2.7624414426770354 4.148676461105953
29 3 1 0.0 0.8035777536990572 3.1796153288403852 4.638635740524371
30 3 2 0.0 0.5532731004552677 3.3283243454240026 4.988961376049908
31 3 1 0.0 0.7882452684386624 3.271601269975485 5.378387677861056
32 3 1 0.0 0.822526753292659 3.2923216852253367 5.862292716929633
33 3 1 0.0 0.20444021561486964 2.6933804851715313 4.598587274918767
34 3 1 0.0 0.45887460964963644 2.5910087374540534 5.010827640751977
35 3 1 0.0 0.3609623667060396 2.6944291361892185 5.435685646133456
36 3 1 0.0 0.4677238627167897 2.664094298134664 5.914798453131185
37 4 5 8.861242189860825 0.8124075732600022 4.686263907781409 3.157656460531756
38 4 6 -8.861242189860825 0.9904105354482108 4.675616230487305 3.5673310137468626
39 4 3 0.0 0.9593527036650475 4.512638125857748 4.042675764902543
40 4 3 0.0 0.5630669862485187 4.355926437297354 4.035654715845401
41 4 1 0.0 1.0754654507137213 4.371578277445412 4.572346905110244
42 4 2 0.0 0.9590352400914992 4.614972152722943 4.939359533621829
43 4 1 0.0 1.0655630519702672 4.379426723286819 5.317846584292703
44 4 1 0.0 1.0660459469688663 4.325860010362964 5.800442706041351
45 4 1 0.0 0.3102748738796236 4.414788351201629 4.474314956303226
46 4 1 0.0 0.39930317830152057 4.130338619626383 4.86968979874948
47 4 1 0.0 0.36061114289661145 4.2316255493835255 5.304466517521441
48 4 1 0.0 0.38177502814502356 4.09246689176 5.775692852979364
49 5 5 8.861242189860825 0.4475000818044968 5.603361075564125 3.4999655434140644
50 5 6 -8.861242189860825 0.4139048479992966 5.77769265470821 3.9099796016001673
51 5 3 0.0 0.5830988678662823 5.79076324125157 4.383985537600585
52 5 3 0.0 0.8391231788662505 5.450150023837022 4.374798231730679
53 5 1 0.0 0.6926104294602012 5.939923015809586 4.9128429353566245
54 5 2 0.0 0.4917068020052864 5.763057825648149 5.281423020195384
55 5 1 0.0 0.6936508179328008 5.928053470576417 5.658354477019081
56 5 1 0.0 0.7490488204934957 5.942552445699024 6.140526110030151
57 5 1 0.0 0.852849745934759 5.190653888022879 4.813278243130242
58 5 1 0.0 1.106720528232795 5.351724516599862 5.206679861487445
59 5 1 0.0 1.0227947949329326 5.287442662485207 5.642123572489429
60 5 1 0.0 1.1551549444476041 5.344560907396219 6.112320975904454
61 6 5 8.861242189860825 0.9668501561322759 6.8396108766723565 3.4134079668627195
62 6 6 -8.861242189860825 0.94905517264096 7.079596933226119 3.789867391441055
63 6 3 0.0 0.8853586900320709 7.087180141487299 4.289231323869792
64 6 3 0.0 0.7494110859255472 6.687401433713058 4.347071206629871
65 6 1 0.0 0.8803875352833608 7.236119856747351 4.829345956581169
66 6 2 0.0 0.5134664747720343 7.380347847372765 5.0575170854045375
67 6 1 0.0 0.6194862230509547 7.428346687220772 5.500843371457578
68 6 1 0.0 0.4961753851450993 7.524736756749011 5.960486748870088
69 6 1 0.0 0.4028403537232575 6.6390676722642095 4.7176706651128715
70 6 1 0.0 0.5266451848843692 6.650000400894948 5.196953247778592
71 6 1 0.0 0.28580550785341086 6.791573022679358 5.54729644188721
72 6 1 0.0 0.23948071417610306 6.852321049089057 6.033126650949567
73 7 5 8.861242189860825 0.30615770659505226 8.590919020976953 3.1677616792881818
74 7 6 -8.861242189860825 0.15889940990532017 8.718865533569284 3.5697272886418085
75 7 3 0.0 0.2468372639362768 8.760550065631406 4.063699370413807
76 7 3 0.0 0.6032929773046385 8.528357291199582 4.0897004895887585
77 7 1 0.0 0.22494400257497668 8.906451111836619 4.60422239254461
78 7 2 0.0 0.049033414481981674 8.650357472102563 4.937338520403457
79 7 1 0.0 0.12825866081082044 8.851521341763778 5.341490384737302
80 7 1 0.0 0.10890502204482044 8.855402258847743 5.826649139988595
81 7 1 0.0 0.6456613196467014 8.26348111085859 4.523102054189155
82 7 1 0.0 0.7722173862167181 8.47762706746036 4.951218891169793
83 7 1 0.0 0.6570080131390179 8.362993150662874 5.36879855590962
84 7 1 0.0 0.6960717799282401 8.43373482785958 5.85391394269005
85 8 5 8.861242189860825 1.1291283380149952 9.330269318649018 3.3828001526028864
86 8 6 -8.861242189860825 1.228253056781213 9.269579987439121 3.8142196263617176
87 8 3 0.0 1.0947227937165254 9.329578745586431 4.295934170279197
88 8 3 0.0 0.7617316184888812 9.590240294754599 4.242805531152928
89 8 1 0.0 1.0559347840230342 9.287645640777802 4.853310768868834
90 8 2 0.0 1.2268598139030198 9.587402915051786 5.150674271396444
91 8 1 0.0 1.0940815276520721 9.473596976953297 5.574349154663374
92 8 1 0.0 1.0713801028763001 9.560334016845479 6.051559772600333
93 8 1 0.0 0.7085018687150586 9.935085605945812 4.6143424588349164
94 8 1 0.0 0.5254751761921926 9.81691035980868 5.058971288135758
95 8 1 0.0 0.6151728937108867 9.999127409242323 5.458393592592019
96 8 1 0.0 0.5280236062824442 10.025101695619536 5.941712989479214
97 9 5 8.861242189860825 1.9987019572077376 1.1264487591026602 3.5305643208140385
98 9 6 -8.861242189860825 1.810603254930092 1.0510714415162974 3.9287713088572964
99 9 3 0.0 1.8664967738652822 1.0147471163844826 4.427805918779022
100 9 3 0.0 2.2921062817826603 1.0200697494096613 4.4496790675613145
101 9 1 0.0 1.773530123422146 0.9898155341929282 4.979772571526302
102 9 2 0.0 1.7782346566408245 0.6084475357090622 5.228833124514397
103 9 1 0.0 1.735394928111751 0.7161358239778323 5.6722857846561086
104 9 1 0.0 1.7241302419521825 0.5924592406945058 6.141695895583611
105 9 1 0.0 2.483117503675906 0.7282902536873355 4.821392428270602
106 9 1 0.0 2.472280459834495 0.866759542391867 5.296647906289856
107 9 1 0.0 2.448138176626341 0.6116662178398211 5.664250214307634
108 9 1 0.0 2.447173942269403 0.5736592696952723 6.1545785159631015
109 10 5 8.861242189860825 2.0758587788835374 2.3047895016199895 3.5516625719269346
110 10 6 -8.861242189860825 1.9924216826081136 2.4762656331071566 3.955724268239335
111 10 3 0.0 1.9441610767754767 2.3993937825435507 4.4509421157272495
112 10 3 0.0 1.9463191856110584 1.9732112510186015 4.454685199868097
113 10 1 0.0 1.906988184042023 2.468901787748891 5.005665813516003
114 10 2 0.0 1.5199128015951975 2.456330020079806 5.245477074545275
115 10 1 0.0 1.6175307221112434 2.479430014121336 5.692712363209829
116 10 1 0.0 1.4830505437206496 2.4715486228551833 6.159211675041718
117 10 1 0.0 1.6447937240081654 1.7686266129008201 4.811082317412975
118 10 1 0.0 1.7722449869768253 1.7581745225446055 5.289418897862084
119 10 1 0.0 1.508832580928651 1.7684521734455805 5.651765672597813
120 10 1 0.0 1.45944681947474 1.7487684529160807 6.140683762845277
121 11 5 8.861242189860825 1.9361695100105012 2.903301462883585 3.236910497907865
122 11 6 -8.861242189860825 1.99889626862075 2.7379150786514357 3.647208395533969
123 11 3 0.0 1.9818166340509595 2.811712814041877 4.144944534757528
124 11 3 0.0 1.918667726264072 3.2331870693562177 4.14962276542634
125 11 1 0.0 1.9682049238918853 2.7379618928780536 4.700198612279036
126 11 2 0.0 2.3212866580882405 2.8006057412110126 4.981096955453329
127 11 1 0.0 2.18009469683247 2.7557503708093014 5.414842384686118
128 11 1 0.0 2.2607688931685472 2.7739506540570247 5.893307708803878
129 11 1 0.0 2.1476403833666557 3.471679162861577 4.537545988729267
130 11 1 0.0 1.9689551853789706 3.4552542839240536 4.999022725079928
131 11 1 0.0 2.190346483958442 3.475583454075259 5.388072244657803
132 11 1 0.0 2.183190538981706 3.4930492667558224 5.879509971229939
133 12 5 8.861242189860825 1.52141467629235 4.519261331553335 3.368710929547654
134 12 6 -8.861242189860825 1.4421693099965625 4.605754381674659 3.799838278869047
135 12 3 0.0 1.6181674590122093 4.625455625403663 4.2711296924271185
136 12 3 0.0 1.9926882068762048 4.430613492943278 4.212640623984123
137 12 1 0.0 1.686159770872183 4.7342129122397605 4.81654739081819
138 12 2 0.0 1.6007603407485023 4.440830227216459 5.154376311158353
139 12 1 0.0 1.736674545263206 4.623525781320438 5.552160090464698
140 12 1 0.0 1.8095520753063539 4.595043840967741 6.0313743299614355
141 12 1 0.0 2.140519329432859 4.145057054707072 4.608108528280301
142 12 1 0.0 2.3260738743348948 4.3440866795863124 5.021769831894133
143 12 1 0.0 2.303189816168123 4.192177280466517 5.442705415173093
144 12 1 0.0 2.4270846627926055 4.236165760304636 5.916606651593637
145 13 5 8.861242189860825 1.7548471332307884 5.8571534342773415 3.3298643978447986
146 13 6 -8.861242189860825 1.95283091015824 5.704856049102647 3.7003230293733744
147 13 3 0.0 1.9298561682513908 5.631568173059264 4.197897277515632
148 13 3 0.0 1.580498625677763 5.859733486266507 4.284731116458766
149 13 1 0.0 2.021536775354489 5.4519226722454155 4.720634044874478
150 13 2 0.0 2.240076818366055 5.687397088185302 5.04356885407504
151 13 1 0.0 2.2135792274351394 5.4606735445781895 5.441031536608323
152 13 1 0.0 2.2959435906302708 5.426247120846098 5.91831507463615
153 13 1 0.0 1.5957064915558703 6.096461767855292 4.735862832318307
154 13 1 0.0 1.5253649162603464 5.855013365633448 5.162376239692954
155 13 1 0.0 1.6943107923990177 5.943649074575033 5.567824032837367
156 13 1 0.0 1.7185557852322773 5.842185051022176 6.0484325362020845
157 14 5 8.861242189860825 1.520155789910668 7.277568845651703 3.484963231319293
158 14 6 -8.861242189860825 1.4094788343139846 7.272158841262563 3.9178061710605956
159 14 3 0.0 1.5585968257728187 7.3059346277607915 4.397495763218564
160 14 3 0.0 1.9805164343609474 7.28977676742289 4.339418351707831
161 14 1 0.0 1.5721061504776448 7.367299282074645 4.954257332453715
162 14 2 0.0 1.6131713501903915 7.026766999910651 5.254000983148549
163 14 1 0.0 1.6590027419532984 7.200359139599147 5.675720705387036
164 14 1 0.0 1.7340190868939993 7.147423603760789 6.15252152300916
165 14 1 0.0 2.2304234185010725 7.044861317290106 4.71003176904072
166 14 1 0.0 2.314628489969311 7.251646576432928 5.151968775141288
167 14 1 0.0 2.3537237982596224 7.054801753360108 5.552606496067104
168 14 1 0.0 2.44534355658032 7.088931831241723 6.034590166878205
169 15 5 8.861242189860825 1.9263400203895726 8.885469958859046 3.356854059721594
170 15 6 -8.861242189860825 1.7273310895602756 8.801311106699568 3.7479351257231497
171 15 3 0.0 1.7557072712800166 8.801224804585894 4.250601882946982
172 15 3 0.0 2.1725281040463003 8.877860976624838 4.295740655602922
173 15 1 0.0 1.6322077830118964 8.790600949223178 4.797014344119832
174 15 2 0.0 1.6821912660135696 8.428989991128594 5.069473530729625
175 15 1 0.0 1.5937098797913771 8.55149586992239 5.502192406572385
176 15 1 0.0 1.5719912667537803 8.45272602974362 5.977104464922839
177 15 1 0.0 2.383509168494075 8.641731297395978 4.695141642800849
178 15 1 0.0 2.3194977179918794 8.801519902101925 5.1593927503187516
179 15 1 0.0 2.312956515030879 8.565798416634669 5.540417034167497
180 15 1 0.0 2.2861829699585705 8.554210576761273 6.031351042472912
181 16 5 8.861242189860825 1.7495506723101588 9.939697214655164 3.434159431831452
182 16 6 -8.861242189860825 1.7185078955267277 9.686552480052958 3.801018746125483
183 16 3 0.0 1.663413939828932 9.663499034048478 4.300931017056951
184 16 3 0.0 1.7126872179089971 10.076390338721948 4.394435738231499
185 16 1 0.0 1.566314223400053 9.48957836814192 4.824624452828565
186 16 2 0.0 1.8882273148492932 9.394548999581428 5.132579356377313
187 16 1 0.0 1.6906313503388695 9.30730064815997 5.536838965466442
188 16 1 0.0 1.71688681945687 9.208339447059528 6.011481961481377
189 16 1 0.0 1.9492420937288863 10.160533820285606 4.838004277218544
190 16 1 0.0 1.719932703033778 10.10510594580164 5.2733247441048325
191 16 1 0.0 1.8919893178518414 9.986132489908611 5.6695932755576015
192 16 1 0.0 1.8323927221042116 9.908585954000879 6.151570538302948
193 17 5 8.861242189860825 3.377207043658677 0.6511385422876316 3.46729190629525
194 17 6 -8.861242189860825 3.3522576140799383 0.4823902592232863 3.880248574794579
195 17 3 0.0 3.275824053552533 0.5636197425830224 4.371205564573911
196 17 3 0.0 3.2822754779799177 0.9897746132913696 4.371995237959155
197 17 1 0.0 3.170406480806301 0.49937449014775265 4.917732096890548
198 17 2 0.0 3.484711389727538 0.5067242583381069 5.247358016822055
199 17 1 0.0 3.2770184440849226 0.49043303217633216 5.6556232588374655
200 17 1 0.0 3.2897023334747715 0.5006400893468979 6.140910367240053
201 17 1 0.0 3.4886986577292496 1.1920730108449578 4.791824027767982
202 17 1 0.0 3.2450500051733293 1.2102631360710059 5.222478655367423
203 17 1 0.0 3.408320066158285 1.1985888575465355 5.639603947499677
204 17 1 0.0 3.3332905986530657 1.222554412688407 6.12505583227521
205 18 5 8.861242189860825 3.1423184296511715 1.8387761951131476 3.2060556279770664
206 18 6 -8.861242189860825 3.048058825754947 1.9934007576054684 3.614513751753444
207 18 3 0.0 3.124484274983477 1.9628091106282608 4.111205190979457
208 18 3 0.0 3.3440865546267537 1.5977740652804715 4.124414003683844
209 18 1 0.0 3.1450726974784855 2.0707584744485774 4.660618168019664
210 18 2 0.0 2.86188227468669 1.8968172265716874 4.972134569965317
211 18 1 0.0 3.0031863977868825 2.018778817840711 5.3907522793464135
212 18 1 0.0 2.966998232393297 2.0013280066900703 5.874647442086767
213 18 1 0.0 3.249489106106133 1.315098777504502 4.537859753398459
214 18 1 0.0 3.4380290571387158 1.42672840192526 4.9818760466098455
215 18 1 0.0 3.2671111838917692 1.3484650026851404 5.388630065488133
216 18 1 0.0 3.312448142430171 1.365745986103641 5.878030953372564
217 19 5 8.861242189860825 3.196642757127534 2.8789622008489775 3.4730614056827616
218 19 6 -8.861242189860825 3.1519902887467475 2.759424566956731 3.9012536268667524
219 19 3 0.0 3.2232419420665606 2.8734281309809226 4.386439646084067
220 19 3 0.0 3.473117338838948 3.2156255964862006 4.340467926742151
221 19 1 0.0 3.1975244180866715 2.8866447100485324 4.945989017121441
222 19 2 0.0 3.5107999660838405 2.711401828561305 5.226422976317289
223 19 1 0.0 3.406619393189701 2.822297335068597 5.658777999909478
224 19 1 0.0 3.507418816518985 2.8265709045105125 6.133741004267281
225 19 1 0.0 3.8277258220952928 3.262264830244595 4.703605626547588
226 19 1 0.0 3.718479953772779 3.4223029282984347 5.159250337091491
227 19 1 0.0 3.9152892999286486 3.320413067273627 5.548700524426868
228 19 1 0.0 3.9538378859103904 3.387070632447506 6.034435098843176
229 20 5 8.861242189860825 2.9044729891329224 4.367058312289459 3.3457434961947703
230 20 6 -8.861242189860825 3.0601885887441447 4.164122358259124 3.7120784764123957
231 20 3 0.0 3.0447616496842818 4.115559014271942 4.212960393761181
232 20 3 0.0 2.802840574291346 4.453563261519131 4.30718109431702
233 20 1 0.0 3.1011851536247375 3.9278868411487693 4.737867158118942
234 20 2 0.0 3.407995968650316 4.079751894211451 5.038365030651745
235 20 1 0.0 3.3295543852821443 3.8863102999696717 5.446420834645949
236 20 1 0.0 3.424893070480551 3.8367939890953724 5.919947299281159
237 20 1 0.0 2.9280191081834857 4.680843111802135 4.745890095650328
238 20 1 0.0 2.8052860580239267 4.489654261284886 5.185824609705877
239 20 1 0.0 3.0198633523328 4.523354057009026 5.5777529443089655
240 20 1 0.0 3.037729531994952 4.43147297066557 6.0605634318256705
241 21 5 8.861242189860825 3.099108319647194 6.322924256566702 3.2774697869856895
242 21 6 -8.861242189860825 3.2002380532488788 6.454489394421283 3.6923132015585747
243 21 3 0.0 3.245067497296081 6.33539561002941 4.179433387365537
244 21 3 0.0 3.0609952807911567 5.951039766506178 4.173250916164252
245 21 1 0.0 3.378122393707946 6.334798019649271 4.723701340727476
246 21 2 0.0 3.095918748988676 6.45040381877 5.062066888725419
247 21 1 0.0 3.299154559236711 6.367310552342481 5.464401309406391
248 21 1 0.0 3.2926475861772424 6.350095031499315 5.94961252917731
249 21 1 0.0 2.796956296298078 5.84207480305826 4.595390034171073
250 21 1 0.0 3.018852224428016 5.7120373138358795 5.018487426383506
251 21 1 0.0 2.883439373860443 5.7794497912530405 5.44027627014204
252 21 1 0.0 2.950837613013142 5.713099117954544 5.922896583402313
253 22 5 8.861242189860825 3.4601307792957328 7.2792851520717194 3.461092072384111
254 22 6 -8.861242189860825 3.309208013847877 7.429993591953369 3.8536999583843086
255 22 3 0.0 3.351960973752528 7.43296808339723 4.355339690438111
256 22 3 0.0 3.631258970009057 7.114463774078953 4.402220950259288
257 22 1 0.0 3.311324540759556 7.564032944948759 4.898572835607212
258 22 2 0.0 3.0407332538490124 7.353921678405594 5.198786847729987
259 22 1 0.0 3.1259705181167323 7.515531781485449 5.619142714728577
260 22 1 0.0 3.0568662787012593 7.510556148369835 6.0997345267871985
261 22 1 0.0 3.5572921356024594 6.8355499643132935 4.822372562981162
262 22 1 0.0 3.6887849197190112 6.996532797439858 5.27176451883339
263 22 1 0.0 3.5041376813539804 6.90444021735345 5.669522315723296
264 22 1 0.0 3.5084379369343566 6.948556058279734 6.159320847408317
265 23 5 8.861242189860825 3.059652512719758 8.453544841637903 3.4372732415223237
266 23 6 -8.861242189860825 2.882974874884339 8.505611304224711 3.8443429688346438
267 23 3 0.0 2.954194460159269 8.617641269415632 4.329993194333981
268 23 3 0.0 3.3803059212874875 8.61652210196136 4.3388243012312
269 23 1 0.0 2.8786179849033613 8.760722680883305 4.86641417985798
270 23 2 0.0 2.883297427032755 8.470681759274903 5.21762523971948
271 23 1 0.0 2.8571096293018687 8.706567504362683 5.609740511128095
272 23 1 0.0 2.8584136002825504 8.728432521703443 6.094806345138544
273 23 1 0.0 3.5770159765133944 8.442881756430001 4.77579749047705
274 23 1 0.0 3.5844871113773813 8.716642266697471 5.188299999539488
275 23 1 0.0 3.566848318580152 8.583210827404688 5.615701257055688
276 23 1 0.0 3.580935479802185 8.6927434664396 6.094941754232465
277 24 5 8.861242189860825 3.586642233552836 9.849440725854544 3.492561607137337
278 24 6 -8.861242189860825 3.7385632004719596 9.810421430821197 3.9109264975822606
279 24 3 0.0 3.6388289388546626 9.710798598402144 4.3942560458983415
280 24 3 0.0 3.2129848681514908 9.70735134285035 4.377075761681883
281 24 1 0.0 3.6827990868325697 9.583169106831557 4.938047280287479
282 24 2 0.0 3.6538461407533123 9.882550726798426 5.280139686655225
283 24 1 0.0 3.658246555427057 9.657688988893446 5.679514331236617
284 24 1 0.0 3.62746371217136 9.648964853003582 6.164019180192695
285 24 1 0.0 2.9882382017839766 9.890541318272144 4.796267546435081
286 24 1 0.0 2.9581600532850145 9.627994094369932 5.214983697335645
287 24 1 0.0 2.948322338615713 9.773150296598152 5.638799467752794
288 24 1 0.0 2.9059791007599065 9.676494284023393 6.1191451419297636
289 25 5 8.861242189860825 4.483582436543291 0.48715695873070336 3.2417635061576453
290 25 6 -8.861242189860825 4.504297602736261 0.38134872006432335 3.6753614370238443
291 25 3 0.0 4.36433074950049 0.48506802202621196 4.1477285298137465
292 25 3 0.0 4.184660358637557 0.8662359962094768 4.083855652989287
293 25 1 0.0 4.257564671960675 0.45428702887532557 4.696896175235101
294 25 2 0.0 4.512232215743683 0.6433372684108477 5.023850745520061
295 25 1 0.0 4.302968981615435 0.5915951661971423 5.428342927469423
296 25 1 0.0 4.274291674865999 0.6708405249476851 5.90653371349732
297 25 1 0.0 4.251079548472864 1.1927193912649001 4.46958673485543
298 25 1 0.0 3.9929047271690057 1.1586981079598981 4.89071292585745
299 25 1 0.0 4.113886953183656 1.2758818674103085 5.305945605736002
300 25 1 0.0 4.000497322154205 1.3286655308152844 5.7815756906886335
301 26 5 8.861242189860825 4.115558907743368 1.7660449269549459 3.349827777596536
302 26 6 -8.861242189860825 3.9741589876754833 1.7618197387836587 3.7736436309116828
303 26 3 0.0 4.070263915666754 1.863610030353573 4.257256764845072
304 26 3 0.0 4.486614964645191 1.9498105082922317 4.22773558757608
305 26 1 0.0 4.0222362847026565 1.9632005794149536 4.806535052083751
306 26 2 0.0 4.1204706860968034 1.664464156949869 5.136082308529056
307 26 1 0.0 4.087366180191552 1.8715857970982854 5.543620023873858
308 26 1 0.0 4.13335104090459 1.8708764513288487 6.026997238957135
309 26 1 0.0 4.757330326450891 1.8004278130600309 4.632938483407898
310 26 1 0.0 4.751498547521487 2.0505604293957904 5.060207274007462
311 26 1 0.0 4.804310340144637 1.8968063503395496 5.477768657115399
312 26 1 0.0 4.844593145113941 1.9846919624798274 5.9599726762421845
313 27 5 8.861242189860825 4.274418350833047 3.6450356531254866 3.2982120270702087
314 27 6 -8.861242189860825 4.493280900446098 3.6431555533500464 3.687733934969165
315 27 3 0.0 4.51142912461948 3.490001762574523 4.166997580873389
316 27 3 0.0 4.1170744533565715 3.3325427892864314 4.20362111529907
317 27 1 0.0 4.681435676772439 3.360122084516457 4.6848398436164205
318 27 2 0.0 4.602110926453111 3.6108733996138476 5.0567621525988695
319 27 1 0.0 4.747526203968443 3.3833838164316123 5.427147301013563
320 27 1 0.0 4.7973842169175365 3.3398185286271396 5.908172130820885
321 27 1 0.0 3.9100837732873117 3.400066170125023 4.66447557708447
322 27 1 0.0 4.039992958926405 3.12400430687191 5.054440198511434
323 27 1 0.0 4.045433316897313 3.2342066420521514 5.488735902790772
324 27 1 0.0 4.115023073849022 3.1048656944535855 5.9580923624897935
325 28 5 8.861242189860825 5.021626846374347 4.304642677114243 3.160821780168802
326 28 6 -8.861242189860825 5.01138927048518 4.136472790991637 3.574640277306081
327 28 3 0.0 4.847149426835944 4.177752751253957 4.048771401146085
328 28 3 0.0 4.687552192835299 4.572587198716898 4.031898337238689
329 28 1 0.0 4.705787495836248 4.073377440627266 4.580799752482596
330 28 2 0.0 4.947518553562772 4.200396593696479 4.945391404113742
331 28 1 0.0 4.711933924006494 4.101268716303908 5.325859297368793
332 28 1 0.0 4.65731767251079 4.112000080157992 5.808218650497009
333 28 1 0.0 4.743600339827155 4.836286402470154 4.464463614048555
334 28 1 0.0 4.458947631089624 4.754697728431767 4.861294911324756
335 28 1 0.0 4.558997771491425 4.804584418825972 5.295216791916884
336 28 1 0.0 4.418968555533747 4.793735964643942 5.766535612864691
337 29 5 8.861242189860825 4.6651374560628005 5.914246094617178 3.1752296695973863
338 29 6 -8.861242189860825 4.749536431576295 6.130040406421151 3.557252306435644
339 29 3 0.0 4.769146219988686 6.116899483322022 4.060165675012672
340 29 3 0.0 4.577635485710544 5.741960602159582 4.1264581507437175
341 29 1 0.0 4.876660298582658 6.230783772579768 4.598127252817792
342 29 2 0.0 4.581456564304756 6.418673808901428 4.88975532326808
343 29 1 0.0 4.763962644166786 6.421021181597656 5.310193537768478
344 29 1 0.0 4.734503201275077 6.507543368455789 5.787073706210905
345 29 1 0.0 4.292015751850393 5.728080878473342 4.548382438315515
346 29 1 0.0 4.491217467342252 5.688788506018904 4.999972673853076
347 29 1 0.0 4.3377283854896485 5.84582954527071 5.390569812439976
348 29 1 0.0 4.3811803718942635 5.8830289800483735 5.8790321223362545
349 30 5 8.861242189860825 4.598862506661558 6.789898740271379 3.1669933787891598
350 30 6 -8.861242189860825 4.695036128801874 6.6908123459421285 3.591921829230847
351 30 3 0.0 4.555106241782812 6.7014826320533345 4.075434864906315
352 30 3 0.0 4.21626674730037 6.957981648132196 4.043088767473935
353 30 1 0.0 4.511654714215839 6.6057770168040255 4.625783815656723
354 30 2 0.0 4.6719695178324585 6.879872704050212 4.95238075368514
355 30 1 0.0 4.537732149236262 6.723118977866185 5.361637237759924
356 30 1 0.0 4.507968513769727 6.763476766379331 5.844601022694183
357 30 1 0.0 4.15061960625356 7.264529468369676 4.444972171364851
358 30 1 0.0 3.9660461459491336 7.1002319554208855 4.874038506342277
359 30 1 0.0 4.047053006359457 7.245699482809565 5.290048119177609
360 30 1 0.0 3.9543211740645416 7.22346561751351 5.772514453518895
361 31 5 8.861242189860825 4.150787595709264 8.343705860512506 3.249060009073258
362 31 6 -8.861242189860825 4.019658312880306 8.309579611613282 3.674820713521619
363 31 3 0.0 4.074028824938697 8.460269650098349 4.15212087450509
364 31 3 0.0 4.434054788653189 8.684905317712694 4.112493351537403
365 31 1 0.0 3.994096093001564 8.561576608017498 4.697354059731797
366 31 2 0.0 4.190402125760781 8.3311275310719 5.037724455613094
367 31 1 0.0 4.086930329241874 8.531885530973852 5.436562874472135
368 31 1 0.0 4.130139688787454 8.569130879321637 5.918760321501871
369 31 1 0.0 4.739790514020171 8.657867015987485 4.519415924046057
370 31 1 0.0 4.646845211206106 8.909294586161385 4.935714257530733
371 31 1 0.0 4.749925685372684 8.802687484431894 5.358557316638894
372 31 1 0.0 4.7568471647756265 8.920819546569646 5.835908560774121
373 32 5 8.861242189860825 4.633129971907883 9.265171551071179 3.217247133331587
374 32 6 -8.861242189860825 4.856975718781205 9.370172897127704 3.589402297294921
375 32 3 0.0 4.880993256663886 9.355786631988831 4.092090348877985
376 32 3 0.0 4.486846874655888 9.216770051288561 4.1755962656148045
377 32 1 0.0 5.057395722320204 9.373641733757578 4.623592872937303
378 32 2 0.0 4.983327368370782 9.7180905699304 4.912320634258489
379 32 1 0.0 5.133062656478187 9.601417142044657 5.329512348316001
380 32 1 0.0 5.189015643242104 9.692640742292813 5.8031326188681
381 32 1 0.0 4.285922165287961 9.410513474649045 4.602075023131393
382 32 1 0.0 4.4203130836407665 9.252683145579415 5.051727803742088
383 32 1 0.0 4.4315403425990665 9.47892972627223 5.4383456309443625
384 32 1 0.0 4.5069124707772295 9.484400179099191 5.924304906706494
385 33 5 8.861242189860825 5.429563817205216 0.613669319723964 3.4465669529487197
386 33 6 -8.861242189860825 5.3722954592058345 0.38045305500979476 3.8233456362315703
387 33 3 0.0 5.385996528658925 0.37130195566452107 4.326543034904878
388 33 3 0.0 5.5787014172543286 0.7449283475457908 4.396674080033713
389 33 1 0.0 5.315255266882454 0.23280804210687586 4.864824260120831
390 33 2 0.0 5.630539258375666 0.03535821325265753 5.12770144009026
391 33 1 0.0 5.476350495119236 0.012671663206262673 5.558739045514552
392 33 1 0.0 5.538022311274959 10.279217046136235 6.028316240545502
393 33 1 0.0 5.8915727021327235 0.7432244565895572 4.799042119764841
394 33 1 0.0 5.7224838715885 0.7605953104842513 5.264086392540051
395 33 1 0.0 5.902706693451822 0.5881543359879465 5.6363373236656855
396 33 1 0.0 5.892032832739674 0.5291020703211923 6.124462512399696
397 34 5 8.861242189860825 5.700094790944309 2.1558490863683764 3.375645842216213
398 34 6 -8.861242189860825 5.8279419467882105 1.9651441818607618 3.758945217732141
399 34 3 0.0 5.781303985617008 1.938806914319102 4.2595551785511425
400 34 3 0.0 5.543731916267648 2.28661617310282 4.324658555261026
401 34 1 0.0 5.801039427588284 1.7727585933738352 4.794316840482589
402 34 2 0.0 6.093496738138585 1.9297097231280016 5.106294253654933
403 34 1 0.0 5.985471394827494 1.7562414333368526 5.51656434663871
404 34 1 0.0 6.0509640193690055 1.724953089275614 5.996668916815304
405 34 1 0.0 5.648812070721276 2.5295026128880886 4.760268153469511
406 34 1 0.0 5.49475226817941 2.3607936660184117 5.199542354063802
407 34 1 0.0 5.686418770950349 2.40604376797585 5.602038678168651
408 34 1 0.0 5.672869397081582 2.334813437524087 6.088464372135355
409 35 5 8.861242189860825 5.712373266628174 2.877530301276498 3.411671654002585
410 35 6 -8.861242189860825 5.4711532299621295 2.9336542476438 3.7835515589269115
411 35 3 0.0 5.46214061062718 3.0464559433946063 4.274136550629098
412 35 3 0.0 5.880764703743765 3.0392298317710327 4.353835172089989
413 35 1 0.0 5.300402889217061 3.1926101404508724 4.7902871369758815
414 35 2 0.0 5.242217142102649 2.903843134841691 5.1377391153259495
415 35 1 0.0 5.154584671944803 3.141541795899703 5.51971053868472
416 35 1 0.0 5.075401164492891 3.1651937911762578 5.998186450215209
417 35 1 0.0 5.999347112786383 2.8644031700461 4.817694239219956
418 35 1 0.0 5.9420655549621975 3.139563395594429 5.225327196953129
419 35 1 0.0 5.851507822023394 3.0079941317355807 5.64398664894501
420 35 1 0.0 5.787197811782935 3.1190981252275183 6.118736505682753
421 36 5 8.861242189860825 5.665845027815917 4.526408928355144 3.4086960418666967
422 36 6 -8.861242189860825 5.458445237173672 4.535380219299051 3.8043429929631083
423 36 3 0.0 5.495550780670229 4.533893823490009 4.3064386543905835
424 36 3 0.0 5.909660625580259 4.440457549403679 4.34429254881507
425 36 1 0.0 5.389957293187476 4.583594346711186 4.854445443603088