Lipid soup setup

4400 atoms
1408 bonds
1024 angles
0 dihedrals
0 impropers

6 atom types
2 bond types
3 angle types
0 dihedral types
0 improper types

0 9.071457382051815 xlo xhi
0 9.071457382051815 ylo yhi
0 17.822855769230767 zlo zhi

Masses

1 1
2 1
3 1
4 1
5 1
6 1

Atoms

1 1 5 8.861242189860825 0.4595003703172775 0.5841232306674412 5.70520847054802
2 1 6 -8.861242189860825 0.5956371982819741 0.3991116880936163 6.0884435946137785
3 1 3 0.0 0.5507170083433208 0.37110170345789695 6.589119838559456
4 1 3 0.0 0.2989122898395594 0.7087261768521056 6.6543449640416705
5 1 1 0.0 0.5779822731672905 0.20628938066603386 7.123932956592528
6 1 2 0.0 0.8639948469989123 0.3754647573704194 7.435495697436602
7 1 1 0.0 0.7637766334230445 0.19784490141055866 7.845970749046225
8 1 1 0.0 0.8310722142701114 0.16955731306153926 8.326012163709308
9 1 1 0.0 0.3942675206391762 0.9560042764957887 7.089721014070469
10 1 1 0.0 0.24788985099411004 0.7812330309779774 7.529252064612182
11 1 1 0.0 0.43796556246874907 0.834643826513246 7.931502511171555
12 1 1 0.0 0.4279622336394012 0.7631536425600487 8.417975931072542
13 2 5 8.861242189860825 0.5420598959495831 1.878518291684521 6.040372368262904
14 2 6 -8.861242189860825 0.3915152575949068 1.720231173252806 6.430132765343954
15 2 3 0.0 0.37450300612735365 1.764340689485582 6.931375239434772
16 2 3 0.0 0.6748523587009174 2.062078892900259 6.984218847616718
17 2 1 0.0 0.2336094155432718 1.7177879678763868 7.47166535397818
18 2 2 0.0 0.4523308301330017 1.4610171815342856 7.777810006121995
19 2 1 0.0 0.27636693556896585 1.537924277478508 8.193988186665793
20 2 1 0.0 0.27435714588151455 1.470773016917523 8.674878310912865
21 2 1 0.0 0.9479083283413234 2.0060298796294807 7.410939281973955
22 2 1 0.0 0.7691803671943128 2.1292417722559707 7.8559495068458105
23 2 1 0.0 0.862818368807647 1.9516197448181685 8.256535641094441
24 2 1 0.0 0.8072826406376638 1.9548802427622565 8.74517912392142
25 3 5 8.861242189860825 0.3215371766667995 2.6555629151930136 5.793708927485299
26 3 6 -8.861242189860825 0.45989792993282114 2.8163532374009765 6.186944787207491
27 3 3 0.0 0.5435615856513505 2.734376900705015 6.676597068820363
28 3 3 0.0 0.35240753209948217 2.355519252453991 6.716311404544867
29 3 1 0.0 0.7221933156544482 2.772693138617341 7.206270683963286
30 3 2 0.0 0.47188866241065885 2.9214021552009584 7.556596319488823
31 3 1 0.0 0.7068608303940536 2.864679079752441 7.946022621299971
32 3 1 0.0 0.7411423152480501 2.8853994950022925 8.429927660368548
33 3 1 0.0 0.12305577757026082 2.286458294948487 7.166222218357682
34 3 1 0.0 0.3774901716050276 2.184086547231009 7.578462584190891
35 3 1 0.0 0.2795779286614308 2.2875069459661743 8.003320589572372
36 3 1 0.0 0.38633942467218085 2.25717210791162 8.4824333965701
37 4 5 8.861242189860825 0.7310231352153934 4.116572841469147 5.725291403970671
38 4 6 -8.861242189860825 0.909026097403602 4.1059251641750425 6.134965957185777
39 4 3 0.0 0.8779682656204387 3.942947059545486 6.610310708341458
40 4 3 0.0 0.4816825482039099 3.786235370985092 6.603289659284315
41 4 1 0.0 0.9940810126691124 3.8018872111331503 7.139981848549159
42 4 2 0.0 0.8776508020468905 4.0452810864106805 7.5069944770607435
43 4 1 0.0 0.9841786139256584 3.8097356569745577 7.885481527731618
44 4 1 0.0 0.9846615089242576 3.7561689440507027 8.368077649480265
45 4 1 0.0 0.22889043583501478 3.8450972848893676 7.04194989974214
46 4 1 0.0 0.31791874025691175 3.560647553314121 7.437324742188395
47 4 1 0.0 0.2792267048520026 3.661934483071264 7.872101460960356
48 4 1 0.0 0.30039059010041474 3.522775825447738 8.34332779641828
49 5 5 8.861242189860825 0.3661156437598881 4.870901133162646 6.067600486852979
50 5 6 -8.861242189860825 0.3325204099546879 5.045232712306731 6.477614545039081
51 5 3 0.0 0.5017144298216736 5.058303298850091 6.9516204810395
52 5 3 0.0 0.7577387408216418 4.717690081435543 6.942433175169594
53 5 1 0.0 0.6112259914155925 5.207463073408107 7.480477878795539
54 5 2 0.0 0.41032236396067767 5.030597883246669 7.849057963634299
55 5 1 0.0 0.6122663798881921 5.195593528174937 8.225989420457996
56 5 1 0.0 0.667664382448887 5.210092503297545 8.708161053469066
57 5 1 0.0 0.7714653078901503 4.4581939456214 7.380913186569156
58 5 1 0.0 1.0253360901881863 4.619264574198383 7.77431480492636
59 5 1 0.0 0.9414103568883239 4.554982720083728 8.209758515928343
60 5 1 0.0 1.0737705064029952 4.61210096499474 8.679955919343367
61 6 5 8.861242189860825 0.885465718087667 5.9443820581816595 5.981042910301634
62 6 6 -8.861242189860825 0.8676707345963512 6.184368114735422 6.357502334879969
63 6 3 0.0 0.8039742519874622 6.191951322996602 6.856866267308707
64 6 3 0.0 0.6680266478809384 5.792172615222361 6.914706150068786
65 6 1 0.0 0.7990030972387521 6.340891038256654 7.3969809000200835
66 6 2 0.0 0.4320820367274255 6.485119028882068 7.625152028843452
67 6 1 0.0 0.5381017850063459 6.533117868730075 8.068478314896494
68 6 1 0.0 0.41479094710049047 6.629507938258314 8.528121692309004
69 6 1 0.0 0.3214559156786487 5.7438388537735126 7.285305608551786
70 6 1 0.0 0.4452607468397604 5.754771582404251 7.7645881912175065
71 6 1 0.0 0.20442106980880204 5.896344204188661 8.114931385326123
72 6 1 0.0 0.15809627613149424 5.95709223059836 8.600761594388482
73 7 5 8.861242189860825 0.22477326855044347 7.532921326397038 5.735396622727096
74 7 6 -8.861242189860825 0.07751497186071135 7.66086783898937 6.137362232080723
75 7 3 0.0 0.165452825891668 7.702552371051492 6.631334313852721
76 7 3 0.0 0.5219085392600296 7.470359596619668 6.657335433027673
77 7 1 0.0 0.14355956453036786 7.848453417256704 7.171857335983525
78 7 2 0.0 9.039106358489187 7.592359777522647 7.504973463842371
79 7 1 0.0 0.046874222766211615 7.793523647183863 7.909125328176216
80 7 1 0.0 0.027520584000211623 7.797404564267828 8.39428408342751
81 7 1 0.0 0.5642768816020924 7.205483416278676 7.09073699762807
82 7 1 0.0 0.6908329481721092 7.419629372880447 7.5188538346087075
83 7 1 0.0 0.575623575094409 7.304995456082959 7.936433499348534
84 7 1 0.0 0.6146873418836314 7.375737133279664 8.421548886128965
85 8 5 8.861242189860825 1.0477438999703867 8.109502747979885 5.950435096041801
86 8 6 -8.861242189860825 1.1468686187366044 8.048813416769988 6.381854569800632
87 8 3 0.0 1.0133383556719164 8.108812174917299 6.863569113718111
88 8 3 0.0 0.6803471804442724 8.369473724085466 6.810440474591842
89 8 1 0.0 0.9745503459784255 8.06687907010867 7.4209457123077485
90 8 2 0.0 1.1454753758584113 8.366636344382654 7.718309214835359
91 8 1 0.0 1.0126970896074634 8.252830406284165 8.14198409810229
92 8 1 0.0 0.9899956648316914 8.339567446176346 8.619194716039248
93 8 1 0.0 0.6271174306704499 8.714319035276679 7.181977402273831
94 8 1 0.0 0.44409073814758393 8.596143789139548 7.626606231574672
95 8 1 0.0 0.533788455666278 8.77836083857319 8.026028536030934
96 8 1 0.0 0.4466391682378355 8.804335124950404 8.509347932918129
97 9 5 8.861242189860825 1.7545486430739112 1.0450643210580512 6.098199264252953
98 9 6 -8.861242189860825 1.5664499407962658 0.9696870034716886 6.496406252296211
99 9 3 0.0 1.6223434597314559 0.9333626783398736 6.9954408622179365
100 9 3 0.0 2.047952967648834 0.9386853113650525 7.017314011000229
101 9 1 0.0 1.5293768092883198 0.9084310961483195 7.547407514965217
102 9 2 0.0 1.5340813425069981 0.5270630976644534 7.796468067953311
103 9 1 0.0 1.4912416139779245 0.6347513859332234 8.239920728095022
104 9 1 0.0 1.479976927818356 0.511074802649897 8.709330839022526
105 9 1 0.0 2.2389641895420795 0.6469058156427266 7.389027371709517
106 9 1 0.0 2.2281271457006686 0.7853751043472582 7.86428284972877
107 9 1 0.0 2.2039848624925145 0.5302817797952123 8.231885157746548
108 9 1 0.0 2.203020628135577 0.4922748316506634 8.722213459402017
109 10 5 8.861242189860825 1.8317054647497113 2.060636187486163 6.119297515365849
110 10 6 -8.861242189860825 1.7482683684742872 2.2321123189733303 6.523359211678249
111 10 3 0.0 1.7000077626416503 2.1552404684097244 7.018577059166164
112 10 3 0.0 1.702165871477232 1.7290579368847752 7.022320143307011
113 10 1 0.0 1.6628348699081967 2.2247484736150644 7.573300756954917
114 10 2 0.0 1.2757594874613711 2.21217670594598 7.8131120179841895
115 10 1 0.0 1.373377407977417 2.2352766999875096 8.260347306648743
116 10 1 0.0 1.2388972295868232 2.227395308721357 8.726846618480632
117 10 1 0.0 1.400640409874339 1.5244732987669938 7.378717260851889
118 10 1 0.0 1.528091672842999 1.5140212084107791 7.857053841300998
119 10 1 0.0 1.2646792667948246 1.5242988593117541 8.219400616036728
120 10 1 0.0 1.2152935053409137 1.5046151387822544 8.70831870628419
121 11 5 8.861242189860825 1.6920161958766748 2.496379272660542 5.80454544134678
122 11 6 -8.861242189860825 1.7547429544869237 2.3309928884283924 6.214843338972884
123 11 3 0.0 1.7376633199171332 2.4047906238188337 6.712579478196442
124 11 3 0.0 1.6745144121302455 2.8262648791331744 6.7172577088652545
125 11 1 0.0 1.724051609758059 2.3310397026550103 7.26783355571795
126 11 2 0.0 2.077133343954414 2.3936835509879693 7.548731898892243
127 11 1 0.0 1.9359413826986434 2.348828180586258 7.982477328125032
128 11 1 0.0 2.016615579034721 2.3670284638339814 8.460942652242792
129 11 1 0.0 1.9034870692328296 3.0647569726385337 7.105180932168182
130 11 1 0.0 1.7248018712451443 3.0483320937010103 7.566657668518842
131 11 1 0.0 1.9461931698246158 3.0686612638522157 7.955707188096717
132 11 1 0.0 1.93903722484788 3.086127076532779 8.447144914668852
133 12 5 8.861242189860825 1.2772613621585234 3.949570265241073 5.936345872986569
134 12 6 -8.861242189860825 1.1980159958627359 4.036063315362397 6.367473222307961
135 12 3 0.0 1.374014144878383 4.055764559091401 6.838764635866033
136 12 3 0.0 1.7485348927423783 3.8609224266310167 6.780275567423038
137 12 1 0.0 1.4420064567383564 4.164521845927498 7.384182334257105
138 12 2 0.0 1.3566070266146757 3.8711391609041965 7.722011254597268
139 12 1 0.0 1.4925212311293794 4.0538347150081755 8.119795033903612
140 12 1 0.0 1.5653987611725273 4.025352774655479 8.59900927340035
141 12 1 0.0 1.8963660152990325 3.57536598839481 7.1757434717192154
142 12 1 0.0 2.0819205602010684 3.774395613274051 7.589404775333048
143 12 1 0.0 2.0590365020342967 3.622486214154254 8.010340358612009
144 12 1 0.0 2.1829313486587787 3.666474693992374 8.484241595032552
145 13 5 8.861242189860825 1.5106938190969619 5.124693491875862 5.897499341283713
146 13 6 -8.861242189860825 1.7086775960244134 4.972396106701168 6.2679579728122885
147 13 3 0.0 1.6857028541175643 4.899108230657785 6.7655322209545465
148 13 3 0.0 1.3363453115439363 5.127273543865028 6.8523660598976806
149 13 1 0.0 1.7773834612206623 4.719462729843936 7.288268988313392
150 13 2 0.0 1.9959235042322285 4.954937145783823 7.611203797513954
151 13 1 0.0 1.9694259133013126 4.7282136021767105 8.008666480047237
152 13 1 0.0 2.0517902764964444 4.693787178444619 8.485950018075066
153 13 1 0.0 1.3515531774220437 5.364001825453813 7.303497775757221
154 13 1 0.0 1.28121160212652 5.122553423231969 7.730011183131868
155 13 1 0.0 1.4501574782651911 5.211189132173554 8.135458976276283
156 13 1 0.0 1.4744024710984507 5.1097251086206965 8.616067479640998
157 14 5 8.861242189860825 1.2760024757768413 6.382340027161006 6.052598174758208
158 14 6 -8.861242189860825 1.165325520180158 6.376930022771866 6.48544111449951
159 14 3 0.0 1.314443511638992 6.410705809270095 6.965130706657479
160 14 3 0.0 1.7363631202271208 6.3945479489321935 6.907053295146746
161 14 1 0.0 1.3279528363438184 6.472070463583948 7.52189227589263
162 14 2 0.0 1.369018036056565 6.131538181419954 7.821635926587463
163 14 1 0.0 1.4148494278194717 6.30513032110845 8.24335564882595
164 14 1 0.0 1.4898657727601727 6.252194785270092 8.720156466448074
165 14 1 0.0 1.986270104367246 6.149632498799409 7.277666712479634
166 14 1 0.0 2.070475175835484 6.356417757942231 7.719603718580203
167 14 1 0.0 2.1095704841257956 6.159572934869411 8.12024143950602
168 14 1 0.0 2.2011902424464935 6.193703012751026 8.60222511031712
169 15 5 8.861242189860825 1.682186706255746 7.82747226427913 5.924489003160509
170 15 6 -8.861242189860825 1.483177775426449 7.7433134121196545 6.315570069162064
171 15 3 0.0 1.51155395714619 7.7432271100059795 6.818236826385896
172 15 3 0.0 1.928374789912474 7.819863282044924 6.863375599041836
173 15 1 0.0 1.3880544688780696 7.732603254643262 7.364649287558747
174 15 2 0.0 1.438037951879743 7.370992296548679 7.6371084741685396
175 15 1 0.0 1.3495565656575503 7.4934981753424745 8.069827350011298
176 15 1 0.0 1.3278379526199537 7.3947283351637045 8.544739408361753
177 15 1 0.0 2.139355854360248 7.583733602816063 7.262776586239763
178 15 1 0.0 2.075344403858053 7.74352220752201 7.727027693757666
179 15 1 0.0 2.0688032008970523 7.507800722054753 8.108051977606411
180 15 1 0.0 2.042029655824744 7.496212882181358 8.598985985911828
181 16 5 8.861242189860825 1.5053973581763325 8.718930643986031 6.001794375270366
182 16 6 -8.861242189860825 1.4743545813929013 8.465785909383825 6.368653689564398
183 16 3 0.0 1.4192606256951057 8.442732463379345 6.868565960495865
184 16 3 0.0 1.4685339037751708 8.855623768052816 6.962070681670413
185 16 1 0.0 1.3221609092662268 8.268811797472788 7.392259396267479
186 16 2 0.0 1.6440740007154668 8.173782428912295 7.700214299816228
187 16 1 0.0 1.4464780362050431 8.086534077490837 8.104473908905357
188 16 1 0.0 1.4727335053230437 7.987572876390394 8.57911690492029
189 16 1 0.0 1.70508877959506 8.939767249616473 7.405639220657458
190 16 1 0.0 1.4757793888999517 8.884339375132507 7.840959687543747
191 16 1 0.0 1.647836003718015 8.765365919239478 8.237228218996517
192 16 1 0.0 1.5882394079703852 8.687819383331746 8.719205481741863
193 17 5 8.861242189860825 2.9702848534356328 0.5697541042430228 6.034926849734164
194 17 6 -8.861242189860825 2.945335423856894 0.4010058211786775 6.4478835182334935
195 17 3 0.0 2.868901863329489 0.48223530453841357 6.9388405080128255
196 17 3 0.0 2.8753532877568735 0.9083901752467609 6.939630181398069
197 17 1 0.0 2.7634842905832566 0.4179900521031438 7.4853670403294625
198 17 2 0.0 3.077789199504494 0.42533982029349804 7.81499296026097
199 17 1 0.0 2.8700962538618784 0.40904859413172334 8.22325820227638
200 17 1 0.0 2.8827801432517273 0.41925565130228903 8.708545310678968
201 17 1 0.0 3.0817764675062054 1.110688572800349 7.359458971206896
202 17 1 0.0 2.838127814950285 1.1288786980263972 7.790113598806338
203 17 1 0.0 3.0013978759352407 1.1172044195019268 8.20723889093859
204 17 1 0.0 2.9263684084300214 1.1411699746437982 8.692690775714125
205 18 5 8.861242189860825 2.7353962394281277 1.5946228809793208 5.773690571415981
206 18 6 -8.861242189860825 2.641136635531903 1.7492474434716418 6.1821486951923585
207 18 3 0.0 2.7175620847604334 1.7186557964944342 6.678840134418372
208 18 3 0.0 2.93716436440371 1.353620751146645 6.692048947122759
209 18 1 0.0 2.7381505072554417 1.8266051603147506 7.228253111458579
210 18 2 0.0 2.454960084463646 1.6526639124378608 7.539769513404232
211 18 1 0.0 2.5962642075638387 1.7746255037068845 7.958387222785328
212 18 1 0.0 2.560076042170253 1.7571746925562435 8.442282385525681
213 18 1 0.0 2.842566915883089 1.0709454633706754 7.105494696837374
214 18 1 0.0 3.031106866915672 1.1825750877914336 7.54951099004876
215 18 1 0.0 2.8601889936687255 1.1043116885513138 7.956265008927048
216 18 1 0.0 2.9055259522071273 1.1215926719698146 8.445665896811478
217 19 5 8.861242189860825 2.7897205669044904 2.4720400106259337 6.040696349121676
218 19 6 -8.861242189860825 2.7450680985237037 2.3525023767336872 6.468888570305667
219 19 3 0.0 2.8163197518435172 2.466505940757879 6.954074589522982
220 19 3 0.0 3.066195148615904 2.808703406263157 6.908102870181065
221 19 1 0.0 2.7906022278636278 2.4797225198254886 7.513623960560356
222 19 2 0.0 3.1038777758607967 2.304479638338261 7.794057919756203
223 19 1 0.0 2.999697202966657 2.4153751448455534 8.226412943348393
224 19 1 0.0 3.100496626295941 2.4196487142874687 8.701375947706195
225 19 1 0.0 3.420803631872249 2.855342640021551 7.271240569986502
226 19 1 0.0 3.311557763549735 3.015380738075391 7.726885280530405
227 19 1 0.0 3.5083671097056044 2.913490877050583 8.116335467865783
228 19 1 0.0 3.546915695687346 2.980148442224462 8.60207004228209
229 20 5 8.861242189860825 2.4975507989098786 3.797367245977197 5.913378439633685
230 20 6 -8.861242189860825 2.653266398521101 3.5944312919468615 6.27971341985131
231 20 3 0.0 2.637839459461238 3.5458679479596804 6.780595337200095
232 20 3 0.0 2.395918384068302 3.883872195206868 6.874816037755934
233 20 1 0.0 2.6942629634016937 3.358195774836507 7.305502101557857
234 20 2 0.0 3.0010737784272723 3.5100608278991885 7.605999974090659
235 20 1 0.0 2.9226321950591005 3.3166192336574096 8.014055778084863
236 20 1 0.0 3.017970880257507 3.2671029227831103 8.487582242720073
237 20 1 0.0 2.521096917960442 4.111152045489873 7.313525039089242
238 20 1 0.0 2.398363867800883 3.9199631949726244 7.753459553144792
239 20 1 0.0 2.612941162109756 3.953662990696764 8.14538788774788
240 20 1 0.0 2.6308073417719084 3.861781904353309 8.628198375264585
241 21 5 8.861242189860825 2.6921861294241505 5.590464314165223 5.8451047304246035
242 21 6 -8.861242189860825 2.7933158630258355 5.722029452019804 6.259948144997489
243 21 3 0.0 2.8381453070730376 5.602935667627931 6.747068330804452
244 21 3 0.0 2.6540730905681134 5.218579824104699 6.740885859603167
245 21 1 0.0 2.9712002034849028 5.602338077247792 7.29133628416639
246 21 2 0.0 2.688996558765633 5.717943876368521 7.629701832164334
247 21 1 0.0 2.8922323690136675 5.634850609941002 8.032036252845305
248 21 1 0.0 2.885725395954199 5.617635089097836 8.517247472616225
249 21 1 0.0 2.3900341060750345 5.109614860656781 7.163024977609988
250 21 1 0.0 2.6119300342049727 4.9795773714344005 7.58612236982242
251 21 1 0.0 2.4765171836374 5.046989848851561 8.007911213580954
252 21 1 0.0 2.5439154227900986 4.980639175553065 8.490531526841227
253 22 5 8.861242189860825 3.053208589072689 6.3840563335810225 6.0287270158230255
254 22 6 -8.861242189860825 2.9022858236248332 6.534764773462672 6.421334901823223
255 22 3 0.0 2.9450387835294842 6.537739264906533 6.9229746338770255
256 22 3 0.0 3.224336779786013 6.219234955588256 6.9698558936982025
257 22 1 0.0 2.9044023505365124 6.668804126458062 7.466207779046126
258 22 2 0.0 2.6338110636259686 6.458692859914897 7.766421791168901
259 22 1 0.0 2.719048327893689 6.620302962994752 8.186777658167491
260 22 1 0.0 2.6499440884782155 6.615327329879138 8.667369470226113
261 22 1 0.0 3.1503699453794156 5.940321145822597 7.390007506420076
262 22 1 0.0 3.2818627294959675 6.101303978949161 7.839399462272304
263 22 1 0.0 3.097215491130937 6.009211398862753 8.23715725916221
264 22 1 0.0 3.101515746711313 6.053327239789037 8.726955790847231
265 23 5 8.861242189860825 2.6527303224967143 7.395547147057989 6.004908184961238
266 23 6 -8.861242189860825 2.4760526846612954 7.447613609644796 6.411977912273558
267 23 3 0.0 2.5472722699362254 7.559643574835717 6.897628137772895
268 23 3 0.0 2.9733837310644438 7.558524407381444 6.906459244670114
269 23 1 0.0 2.4716957946803175 7.702724986303391 7.434049123296894
270 23 2 0.0 2.4763752368097114 7.412684064694989 7.785260183158394
271 23 1 0.0 2.4501874390788254 7.648569809782768 8.17737545456701
272 23 1 0.0 2.4514914100595067 7.670434827123528 8.662441288577458
273 23 1 0.0 3.1700937862903507 7.384884061850086 7.3434324339159645
274 23 1 0.0 3.1775649211543375 7.658644572117556 7.755934942978403
275 23 1 0.0 3.159926128357108 7.525213132824773 8.183336200494603
276 23 1 0.0 3.174013289579141 7.634745771859685 8.66257669767138
277 24 5 8.861242189860825 3.1797200433297927 8.628674155185411 6.060196550576252
278 24 6 -8.861242189860825 3.3316410102489162 8.589654860152065 6.478561441021175
279 24 3 0.0 3.2319067486316193 8.490032027733012 6.961890989337256
280 24 3 0.0 2.8060626779284474 8.486584772181217 6.944710705120798
281 24 1 0.0 3.2758768966095264 8.362402536162424 7.505682223726393
282 24 2 0.0 3.246923950530269 8.661784156129293 7.84777463009414
283 24 1 0.0 3.2513243652040136 8.436922418224313 8.247149274675532
284 24 1 0.0 3.220541521948317 8.42819828233445 8.73165412363161
285 24 1 0.0 2.5813160115609333 8.669774747603011 7.363902489873995
286 24 1 0.0 2.551237863061971 8.407227523700799 7.78261864077456
287 24 1 0.0 2.5414001483926696 8.552383725929019 8.206434411191708
288 24 1 0.0 2.499056910536863 8.45572771335426 8.686780085368678
289 25 5 8.861242189860825 3.9138913702310276 0.40577252068609465 5.80939844959656
290 25 6 -8.861242189860825 3.9346065364239986 0.29996428201971465 6.242996380462759
291 25 3 0.0 3.7946396831882274 0.40368358398160326 6.715363473252661
292 25 3 0.0 3.614969292325294 0.7848515581648681 6.651490596428202
293 25 1 0.0 3.687873605648413 0.37290259083071686 7.264531118674015
294 25 2 0.0 3.9425411494314204 0.561952830366239 7.591485688958976
295 25 1 0.0 3.7332779153031725 0.5102107281525335 7.995977870908337
296 25 1 0.0 3.7046006085537373 0.5894560869030764 8.474168656936234
297 25 1 0.0 3.6813884821606018 1.1113349532202914 7.037221678294345
298 25 1 0.0 3.423213660856743 1.0773136699152892 7.4583478692963645
299 25 1 0.0 3.5441958868713943 1.1944974293656996 7.873580549174917
300 25 1 0.0 3.4308062558419423 1.2472810927706757 8.349210634127548
301 26 5 8.861242189860825 3.545867841431106 1.5218916128211193 5.9174627210354505
302 26 6 -8.861242189860825 3.4044679213632216 1.5176664246498321 6.341278574350597
303 26 3 0.0 3.5005728493544916 1.6194567162197464 6.824891708283986
304 26 3 0.0 3.916923898332929 1.705657194158405 6.795370531014995
305 26 1 0.0 3.452545218390395 1.719047265281127 7.374169995522665
306 26 2 0.0 3.5507796197845414 1.4203108428160425 7.70371725196797
307 26 1 0.0 3.51767511387929 1.6274324829644589 8.111254967312773
308 26 1 0.0 3.563659974592329 1.6267231371950222 8.59463218239605
309 26 1 0.0 4.18763926013863 1.5562744989262043 7.2005734268468125
310 26 1 0.0 4.1818074812092245 1.806407115261964 7.627842217446377
311 26 1 0.0 4.234619273832375 1.652653036205723 8.045403600554312
312 26 1 0.0 4.27490207880168 1.7405386483460008 8.527607619681099
313 27 5 8.861242189860825 3.7047272845207844 3.238113462902443 5.865846970509123
314 27 6 -8.861242189860825 3.9235898341338347 3.2362333631270026 6.255368878408079
315 27 3 0.0 3.9417380583072177 3.0830795723514792 6.734632524312303
316 27 3 0.0 3.547383387044309 2.9256205990633877 6.771256058737984
317 27 1 0.0 4.111744610460177 2.9531998942934132 7.252474787055335
318 27 2 0.0 4.032419860140849 3.2039512093908042 7.624397096037784
319 27 1 0.0 4.177835137656181 2.9764616262085686 7.994782244452478
320 27 1 0.0 4.227693150605274 2.932896338404096 8.4758070742598
321 27 1 0.0 3.340392706975049 2.9931439799019794 7.232110520523385
322 27 1 0.0 3.4703018926141427 2.717082116648866 7.622075141950348
323 27 1 0.0 3.47574225058505 2.8272844518291076 8.056370846229687
324 27 1 0.0 3.5453320075367594 2.6979435042305417 8.525727305928708
325 28 5 8.861242189860825 4.451935780062085 3.7349516108019816 5.728456723607716
326 28 6 -8.861242189860825 4.441698204172918 3.566781724679375 6.142275220744995
327 28 3 0.0 4.277458360523682 3.608061684941694 6.616406344584999
328 28 3 0.0 4.117861126523037 4.0028961324046355 6.599533280677604
329 28 1 0.0 4.1360964295239855 3.503686374315004 7.148434695921511
330 28 2 0.0 4.37782748725051 3.630705527384217 7.513026347552657
331 28 1 0.0 4.142242857694232 3.531577649991646 7.893494240807708
332 28 1 0.0 4.087626606198528 3.5423090138457303 8.375853593935924
333 28 1 0.0 4.173909273514893 4.266595336157892 7.03209855748747
334 28 1 0.0 3.8892565647773623 4.185006662119505 7.428929854763671
335 28 1 0.0 3.9893067051791635 4.23489335251371 7.8628517353557985
336 28 1 0.0 3.8492774892214845 4.22404489833168 8.334170556303604
337 29 5 8.861242189860825 4.095446389750538 5.181786152215699 5.742864613036301
338 29 6 -8.861242189860825 4.179845365264033 5.397580464019672 6.124887249874559
339 29 3 0.0 4.199455153676423 5.3844395409205426 6.6278006184515865
340 29 3 0.0 4.007944419398282 5.009500659758103 6.694093094182632
341 29 1 0.0 4.306969232270396 5.498323830178289 7.165762196256707
342 29 2 0.0 4.011765497992494 5.686213866499949 7.4573902667069945
343 29 1 0.0 4.194271577854524 5.688561239196177 7.877828481207392
344 29 1 0.0 4.164812134962815 5.775083426054309 8.354708649649819
345 29 1 0.0 3.7223246855381307 4.995620936071863 7.116017381754429
346 29 1 0.0 3.9215264010299897 4.956328563617425 7.567607617291991
347 29 1 0.0 3.7680373191773864 5.113369602869231 7.95820475587889
348 29 1 0.0 3.8114893055820014 5.150569037646894 8.44666706577517
349 30 5 8.861242189860825 4.029171440349295 5.894669921780682 5.734628322228074
350 30 6 -8.861242189860825 4.125345062489611 5.795583527451432 6.159556772669761
351 30 3 0.0 3.985415175470549 5.806253813562638 6.6430698083452295
352 30 3 0.0 3.646575680988107 6.062752829641499 6.61072371091285
353 30 1 0.0 3.941963647903577 5.710548198313329 7.193418759095637
354 30 2 0.0 4.102278451520196 5.984643885559515 7.520015697124054
355 30 1 0.0 3.9680410829239996 5.827890159375488 7.929272181198838
356 30 1 0.0 3.9382774474574647 5.8682479478886345 8.412235966133098
357 30 1 0.0 3.5809285399412976 6.369300649878979 7.012607114803766
358 30 1 0.0 3.396355079636871 6.205003136930189 7.441673449781192
359 30 1 0.0 3.4773619400471945 6.350470664318868 7.857683062616523
360 30 1 0.0 3.3846301077522796 6.328236799022813 8.340149396957809
361 31 5 8.861242189860825 3.5810965293970023 7.285708165932591 5.816694952512172
362 31 6 -8.861242189860825 3.4499672465680438 7.251581917033367 6.242455656960534
363 31 3 0.0 3.504337758626435 7.402271955518433 6.719755817944004
364 31 3 0.0 3.864363722340926 7.626907623132779 6.680128294976318
365 31 1 0.0 3.424405026689302 7.503578913437583 7.264989003170712
366 31 2 0.0 3.6207110594485186 7.273129836491986 7.605359399052008
367 31 1 0.0 3.517239262929612 7.473887836393938 8.00419781791105
368 31 1 0.0 3.5604486224751923 7.511133184741723 8.486395264940786
369 31 1 0.0 4.1700994477079085 7.599869321407571 7.0870508674849715
370 31 1 0.0 4.077154144893844 7.85129689158147 7.503349200969647
371 31 1 0.0 4.180234619060422 7.7446897898519795 7.9261922600778085
372 31 1 0.0 4.1871560984633645 7.8628218519897315 8.403543504213037
373 32 5 8.861242189860825 4.063438905595621 8.044404980402046 5.784882076770502
374 32 6 -8.861242189860825 4.2872846524689425 8.149406326458571 6.157037240733835
375 32 3 0.0 4.311302190351624 8.135020061319699 6.6597252923168995
376 32 3 0.0 3.917155808343626 7.996003480619429 6.743231209053719
377 32 1 0.0 4.487704656007942 8.152875163088446 7.191227816376218
378 32 2 0.0 4.41363630205852 8.497323999261267 7.479955577697403
379 32 1 0.0 4.563371590165925 8.380650571375524 7.897147291754916
380 32 1 0.0 4.619324576929842 8.47187417162368 8.370767562307014
381 32 1 0.0 3.716231098975699 8.189746903979913 7.1697099665703075
382 32 1 0.0 3.850622017328504 8.031916574910282 7.619362747181002
383 32 1 0.0 3.861849276286804 8.258163155603098 8.005980574383278
384 32 1 0.0 3.937221404464968 8.263633608430059 8.491939850145409
385 33 5 8.861242189860825 4.697103874803738 0.5322848816793552 6.014201896387634
386 33 6 -8.861242189860825 4.639835516804356 0.29906861696518594 6.390980579670485
387 33 3 0.0 4.653536586257447 0.28991751761991225 6.894177978343793
388 33 3 0.0 4.84624147485285 0.6635439095011821 6.9643090234726275
389 33 1 0.0 4.582795324480976 0.15142360406226704 7.432459203559746
390 33 2 0.0 4.898079315974188 9.025431157259863 7.695336383529175
391 33 1 0.0 4.743890552717758 9.002744607213469 8.126373988953466
392 33 1 0.0 4.805562368873481 8.895681599377884 8.595951183984416
393 33 1 0.0 5.159112759731245 0.6618400185449484 7.366677063203755
394 33 1 0.0 4.990023929187021 0.6792108724396426 7.8317213359789655
395 33 1 0.0 5.170246751050344 0.5067698979433377 8.2039722671046
396 33 1 0.0 5.159572890338196 0.44771763227658345 8.69209745583861
397 34 5 8.861242189860825 4.96763484854283 1.91169577223455 5.943280785655128
398 34 6 -8.861242189860825 5.0954820043867315 1.7209908677269354 6.326580161171055
399 34 3 0.0 5.048844043215529 1.6946536001852757 6.827190121990057
400 34 3 0.0 4.811271973866169 2.0424628589689937 6.8922934986999405
401 34 1 0.0 5.068579485186805 1.5286052792400089 7.361951783921503
402 34 2 0.0 5.361036795737105 1.6855564089941752 7.673929197093847
403 34 1 0.0 5.253011452426015 1.5120881192030262 8.084199290077626
404 34 1 0.0 5.3185040769675265 1.4807997751417876 8.564303860254219
405 34 1 0.0 4.916352128319797 2.2853492987542623 7.327903096908425
406 34 1 0.0 4.762292325777931 2.1166403518845853 7.767177297502717
407 34 1 0.0 4.95395882854887 2.1618904538420236 8.169673621607565
408 34 1 0.0 4.940409454680103 2.090660123390261 8.65609931557427
409 35 5 8.861242189860825 4.979913324226696 2.470608111053455 5.9793065974415
410 35 6 -8.861242189860825 4.738693287560651 2.526732057420756 6.351186502365826
411 35 3 0.0 4.7296806682257015 2.6395337531715626 6.841771494068013
412 35 3 0.0 5.1483047613422865 2.632307641547989 6.921470115528903
413 35 1 0.0 4.567942946815583 2.7856879502278287 7.357922080414796
414 35 2 0.0 4.509757199701171 2.496920944618647 7.705374058764864
415 35 1 0.0 4.422124729543325 2.7346196056766594 8.087345482123634
416 35 1 0.0 4.3429412220914125 2.758271600953214 8.565821393654124
417 35 1 0.0 5.266887170384905 2.4574809798230564 7.385329182658871
418 35 1 0.0 5.209605612560719 2.7326412053713853 7.792962140392044
419 35 1 0.0 5.119047879621916 2.601071941512537 8.211621592383924
420 35 1 0.0 5.054737869381457 2.7121759350044745 8.686371449121667
421 36 5 8.861242189860825 4.933385085414438 3.956717862042882 5.976330985305611
422 36 6 -8.861242189860825 4.725985294772193 3.965689152986789 6.371977936402023
423 36 3 0.0 4.76309083826875 3.9642027571777465 6.874073597829498
424 36 3 0.0 5.17720068317878 3.8707664830914172 6.911927492253985
425 36 1 0.0 4.657497350785997 4.013903280398924 7.422080387042002