Lipid soup setup

5376 atoms
1408 bonds
1024 angles
0 dihedrals
0 impropers

6 atom types
2 bond types
3 angle types
0 dihedral types
0 improper types

0 10.373608390765556 xlo xhi
0 10.373608390765556 ylo yhi
0 16.652456470588234 zlo zhi

Masses

1 1
2 1
3 1
4 1
5 1
6 1

Atoms

1 1 5 8.861242189860825 0.5408848083618862 0.66550766871205 5.120008821226754
2 1 6 -8.861242189860825 0.677021636326583 0.4804961261382251 5.503243945292512
3 1 3 0.0 0.6321014463879296 0.45248614150250577 6.0039201892381895
4 1 3 0.0 0.38029672788416824 0.7901106148967143 6.069145314720404
5 1 1 0.0 0.6593667112118993 0.2876738187106427 6.5387333072712615
6 1 2 0.0 0.9453792850435211 0.4568491954150282 6.850296048115336
7 1 1 0.0 0.8451610714676533 0.2792293394551675 7.260771099724959
8 1 1 0.0 0.9124566523147202 0.2509417511061481 7.7408125143880415
9 1 1 0.0 0.475651958683785 1.0373887145403975 6.504521364749203
10 1 1 0.0 0.32927428903871886 0.8626174690225861 6.9440524152909155
11 1 1 0.0 0.5193500005133579 0.9160282645578548 7.346302861850289
12 1 1 0.0 0.50934667168401 0.8445380806046574 7.8327762817512765
13 2 5 8.861242189860825 0.6234443339941919 2.122671605818347 5.455172718941638
14 2 6 -8.861242189860825 0.4728996956395155 1.9643844873866323 5.844933116022688
15 2 3 0.0 0.45588744417196236 2.008494003619408 6.346175590113505
16 2 3 0.0 0.7562367967455261 2.3062322070340855 6.399019198295452
17 2 1 0.0 0.3149938535878805 1.9619412820102131 6.8864657046569135
18 2 2 0.0 0.5337152681776104 1.705170495668112 7.192610356800729
19 2 1 0.0 0.35775137361357456 1.7820775916123344 7.608788537344527
20 2 1 0.0 0.35574158392612326 1.7149263310513494 8.089678661591599
21 2 1 0.0 1.0292927663859321 2.250183193763307 6.825739632652689
22 2 1 0.0 0.8505648052389215 2.373395086389797 7.270749857524544
23 2 1 0.0 0.9442028068522557 2.195773058951995 7.671335991773175
24 2 1 0.0 0.8886670786822725 2.1990335568960826 8.159979474600153
25 3 5 8.861242189860825 0.4029216147114083 3.062485105416058 5.2085092781640325
26 3 6 -8.861242189860825 0.5412823679774299 3.2232754276240208 5.601745137886224
27 3 3 0.0 0.6249460236959593 3.1412990909280594 6.0913974194990965
28 3 3 0.0 0.433791970144091 2.7624414426770354 6.131111755223601
29 3 1 0.0 0.8035777536990572 3.1796153288403852 6.62107103464202
30 3 2 0.0 0.5532731004552677 3.3283243454240026 6.9713966701675565
31 3 1 0.0 0.7882452684386624 3.271601269975485 7.360822971978704
32 3 1 0.0 0.822526753292659 3.2923216852253367 7.844728011047281
33 3 1 0.0 0.20444021561486964 2.6933804851715313 6.581022569036415
34 3 1 0.0 0.45887460964963644 2.5910087374540534 6.993262934869625
35 3 1 0.0 0.3609623667060396 2.6944291361892185 7.418120940251105
36 3 1 0.0 0.4677238627167897 2.664094298134664 7.897233747248833
37 4 5 8.861242189860825 0.8124075732600022 4.686263907781409 5.140091754649404
38 4 6 -8.861242189860825 0.9904105354482108 4.675616230487305 5.549766307864511
39 4 3 0.0 0.9593527036650475 4.512638125857748 6.025111059020191
40 4 3 0.0 0.5630669862485187 4.355926437297354 6.018090009963049
41 4 1 0.0 1.0754654507137213 4.371578277445412 6.554782199227892
42 4 2 0.0 0.9590352400914992 4.614972152722943 6.921794827739477
43 4 1 0.0 1.0655630519702672 4.379426723286819 7.300281878410352
44 4 1 0.0 1.0660459469688663 4.325860010362964 7.782878000158999
45 4 1 0.0 0.3102748738796236 4.414788351201629 6.456750250420874
46 4 1 0.0 0.39930317830152057 4.130338619626383 6.852125092867128
47 4 1 0.0 0.36061114289661145 4.2316255493835255 7.28690181163909
48 4 1 0.0 0.38177502814502356 4.09246689176 7.758128147097012
49 5 5 8.861242189860825 0.4475000818044968 5.603361075564125 5.482400837531713
50 5 6 -8.861242189860825 0.4139048479992966 5.77769265470821 5.892414895717815
51 5 3 0.0 0.5830988678662823 5.79076324125157 6.366420831718234
52 5 3 0.0 0.8391231788662505 5.450150023837022 6.3572335258483275
53 5 1 0.0 0.6926104294602012 5.939923015809586 6.895278229474273
54 5 2 0.0 0.4917068020052864 5.763057825648149 7.263858314313032
55 5 1 0.0 0.6936508179328008 5.928053470576417 7.640789771136729
56 5 1 0.0 0.7490488204934957 5.942552445699024 8.122961404147798
57 5 1 0.0 0.852849745934759 5.190653888022879 6.79571353724789
58 5 1 0.0 1.106720528232795 5.351724516599862 7.189115155605093
59 5 1 0.0 1.0227947949329326 5.287442662485207 7.624558866607077
60 5 1 0.0 1.1551549444476041 5.344560907396219 8.094756270022103
61 6 5 8.861242189860825 0.9668501561322759 6.8396108766723565 5.395843260980367
62 6 6 -8.861242189860825 0.94905517264096 7.079596933226119 5.772302685558703
63 6 3 0.0 0.8853586900320709 7.087180141487299 6.2716666179874405
64 6 3 0.0 0.7494110859255472 6.687401433713058 6.329506500747519
65 6 1 0.0 0.8803875352833608 7.236119856747351 6.811781250698817
66 6 2 0.0 0.5134664747720343 7.380347847372765 7.039952379522186
67 6 1 0.0 0.6194862230509547 7.428346687220772 7.483278665575226
68 6 1 0.0 0.4961753851450993 7.524736756749011 7.942922042987736
69 6 1 0.0 0.4028403537232575 6.6390676722642095 6.70010595923052
70 6 1 0.0 0.5266451848843692 6.650000400894948 7.17938854189624
71 6 1 0.0 0.28580550785341086 6.791573022679358 7.529731736004858
72 6 1 0.0 0.23948071417610306 6.852321049089057 8.015561945067216
73 7 5 8.861242189860825 0.30615770659505226 8.590919020976953 5.15019697340583
74 7 6 -8.861242189860825 0.15889940990532017 8.718865533569284 5.552162582759457
75 7 3 0.0 0.2468372639362768 8.760550065631406 6.046134664531455
76 7 3 0.0 0.6032929773046385 8.528357291199582 6.072135783706407
77 7 1 0.0 0.22494400257497668 8.906451111836619 6.586657686662258
78 7 2 0.0 0.049033414481981674 8.650357472102563 6.919773814521105
79 7 1 0.0 0.12825866081082044 8.851521341763778 7.32392567885495
80 7 1 0.0 0.10890502204482044 8.855402258847743 7.809084434106243
81 7 1 0.0 0.6456613196467014 8.26348111085859 6.505537348306803
82 7 1 0.0 0.7722173862167181 8.47762706746036 6.933654185287441
83 7 1 0.0 0.6570080131390179 8.362993150662874 7.351233850027268
84 7 1 0.0 0.6960717799282401 8.43373482785958 7.836349236807698
85 8 5 8.861242189860825 1.1291283380149952 9.330269318649018 5.3652354467205345
86 8 6 -8.861242189860825 1.228253056781213 9.269579987439121 5.796654920479366
87 8 3 0.0 1.0947227937165254 9.329578745586431 6.278369464396845
88 8 3 0.0 0.7617316184888812 9.590240294754599 6.225240825270576
89 8 1 0.0 1.0559347840230342 9.287645640777802 6.835746062986482
90 8 2 0.0 1.2268598139030198 9.587402915051786 7.133109565514093
91 8 1 0.0 1.0940815276520721 9.473596976953297 7.5567844487810225
92 8 1 0.0 1.0713801028763001 9.560334016845479 8.033995066717981
93 8 1 0.0 0.7085018687150586 9.935085605945812 6.596777752952565
94 8 1 0.0 0.5254751761921926 9.81691035980868 7.041406582253406
95 8 1 0.0 0.6151728937108867 9.999127409242323 7.440828886709667
96 8 1 0.0 0.5280236062824442 10.025101695619536 7.924148283596862
97 9 5 8.861242189860825 1.9987019572077376 1.1264487591026602 5.512999614931687
98 9 6 -8.861242189860825 1.810603254930092 1.0510714415162974 5.911206602974945
99 9 3 0.0 1.8664967738652822 1.0147471163844826 6.41024121289667
100 9 3 0.0 2.2921062817826603 1.0200697494096613 6.432114361678963
101 9 1 0.0 1.773530123422146 0.9898155341929282 6.9622078656439506
102 9 2 0.0 1.7782346566408245 0.6084475357090622 7.211268418632045
103 9 1 0.0 1.735394928111751 0.7161358239778323 7.654721078773757
104 9 1 0.0 1.7241302419521825 0.5924592406945058 8.12413118970126
105 9 1 0.0 2.483117503675906 0.7282902536873355 6.803827722388251
106 9 1 0.0 2.472280459834495 0.866759542391867 7.279083200407504
107 9 1 0.0 2.448138176626341 0.6116662178398211 7.646685508425282
108 9 1 0.0 2.447173942269403 0.5736592696952723 8.13701381008075
109 10 5 8.861242189860825 2.0758587788835374 2.3047895016199895 5.534097866044583
110 10 6 -8.861242189860825 1.9924216826081136 2.4762656331071566 5.938159562356983
111 10 3 0.0 1.9441610767754767 2.3993937825435507 6.433377409844898
112 10 3 0.0 1.9463191856110584 1.9732112510186015 6.437120493985745
113 10 1 0.0 1.906988184042023 2.468901787748891 6.988101107633651
114 10 2 0.0 1.5199128015951975 2.456330020079806 7.227912368662923
115 10 1 0.0 1.6175307221112434 2.479430014121336 7.675147657327477
116 10 1 0.0 1.4830505437206496 2.4715486228551833 8.141646969159366
117 10 1 0.0 1.6447937240081654 1.7686266129008201 6.793517611530623
118 10 1 0.0 1.7722449869768253 1.7581745225446055 7.271854191979732
119 10 1 0.0 1.508832580928651 1.7684521734455805 7.634200966715461
120 10 1 0.0 1.45944681947474 1.7487684529160807 8.123119056962924
121 11 5 8.861242189860825 1.9361695100105012 2.903301462883585 5.219345792025513
122 11 6 -8.861242189860825 1.99889626862075 2.7379150786514357 5.629643689651617
123 11 3 0.0 1.9818166340509595 2.811712814041877 6.127379828875176
124 11 3 0.0 1.918667726264072 3.2331870693562177 6.132058059543988
125 11 1 0.0 1.9682049238918853 2.7379618928780536 6.682633906396684
126 11 2 0.0 2.3212866580882405 2.8006057412110126 6.963532249570977
127 11 1 0.0 2.18009469683247 2.7557503708093014 7.397277678803766
128 11 1 0.0 2.2607688931685472 2.7739506540570247 7.875743002921526
129 11 1 0.0 2.1476403833666557 3.471679162861577 6.519981282846915
130 11 1 0.0 1.9689551853789706 3.4552542839240536 6.981458019197576
131 11 1 0.0 2.190346483958442 3.475583454075259 7.370507538775451
132 11 1 0.0 2.183190538981706 3.4930492667558224 7.861945265347587
133 12 5 8.861242189860825 1.52141467629235 4.519261331553335 5.351146223665302
134 12 6 -8.861242189860825 1.4421693099965625 4.605754381674659 5.7822735729866945
135 12 3 0.0 1.6181674590122093 4.625455625403663 6.253564986544767
136 12 3 0.0 1.9926882068762048 4.430613492943278 6.195075918101772
137 12 1 0.0 1.686159770872183 4.7342129122397605 6.798982684935838
138 12 2 0.0 1.6007603407485023 4.440830227216459 7.136811605276002
139 12 1 0.0 1.736674545263206 4.623525781320438 7.534595384582346
140 12 1 0.0 1.8095520753063539 4.595043840967741 8.013809624079084
141 12 1 0.0 2.140519329432859 4.145057054707072 6.590543822397949
142 12 1 0.0 2.3260738743348948 4.3440866795863124 7.004205126011781
143 12 1 0.0 2.303189816168123 4.192177280466517 7.4251407092907415
144 12 1 0.0 2.4270846627926055 4.236165760304636 7.899041945711285
145 13 5 8.861242189860825 1.7548471332307884 5.8571534342773415 5.312299691962447
146 13 6 -8.861242189860825 1.95283091015824 5.704856049102647 5.682758323491022
147 13 3 0.0 1.9298561682513908 5.631568173059264 6.18033257163328
148 13 3 0.0 1.580498625677763 5.859733486266507 6.267166410576414
149 13 1 0.0 2.021536775354489 5.4519226722454155 6.703069338992126
150 13 2 0.0 2.240076818366055 5.687397088185302 7.026004148192688
151 13 1 0.0 2.2135792274351394 5.4606735445781895 7.423466830725971
152 13 1 0.0 2.2959435906302708 5.426247120846098 7.9007503687537985
153 13 1 0.0 1.5957064915558703 6.096461767855292 6.718298126435955
154 13 1 0.0 1.5253649162603464 5.855013365633448 7.144811533810602
155 13 1 0.0 1.6943107923990177 5.943649074575033 7.550259326955016
156 13 1 0.0 1.7185557852322773 5.842185051022176 8.030867830319732
157 14 5 8.861242189860825 1.520155789910668 7.277568845651703 5.467398525436941
158 14 6 -8.861242189860825 1.4094788343139846 7.272158841262563 5.900241465178244
159 14 3 0.0 1.5585968257728187 7.3059346277607915 6.379931057336212
160 14 3 0.0 1.9805164343609474 7.28977676742289 6.321853645825479
161 14 1 0.0 1.5721061504776448 7.367299282074645 6.9366926265713635
162 14 2 0.0 1.6131713501903915 7.026766999910651 7.236436277266197
163 14 1 0.0 1.6590027419532984 7.200359139599147 7.658155999504684
164 14 1 0.0 1.7340190868939993 7.147423603760789 8.134956817126808
165 14 1 0.0 2.2304234185010725 7.044861317290106 6.692467063158368
166 14 1 0.0 2.314628489969311 7.251646576432928 7.134404069258936
167 14 1 0.0 2.3537237982596224 7.054801753360108 7.535041790184752
168 14 1 0.0 2.44534355658032 7.088931831241723 8.017025460995853
169 15 5 8.861242189860825 1.9263400203895726 8.885469958859046 5.339289353839242
170 15 6 -8.861242189860825 1.7273310895602756 8.801311106699568 5.730370419840797
171 15 3 0.0 1.7557072712800166 8.801224804585894 6.23303717706463
172 15 3 0.0 2.1725281040463003 8.877860976624838 6.27817594972057
173 15 1 0.0 1.6322077830118964 8.790600949223178 6.77944963823748
174 15 2 0.0 1.6821912660135696 8.428989991128594 7.051908824847273
175 15 1 0.0 1.5937098797913771 8.55149586992239 7.484627700690033
176 15 1 0.0 1.5719912667537803 8.45272602974362 7.959539759040487
177 15 1 0.0 2.383509168494075 8.641731297395978 6.677576936918497
178 15 1 0.0 2.3194977179918794 8.801519902101925 7.1418280444364
179 15 1 0.0 2.312956515030879 8.565798416634669 7.522852328285145
180 15 1 0.0 2.2861829699585705 8.554210576761273 8.013786336590561
181 16 5 8.861242189860825 1.7495506723101588 9.939697214655164 5.4165947259491
182 16 6 -8.861242189860825 1.7185078955267277 9.686552480052958 5.783454040243131
183 16 3 0.0 1.663413939828932 9.663499034048478 6.283366311174599
184 16 3 0.0 1.7126872179089971 10.076390338721948 6.376871032349147
185 16 1 0.0 1.566314223400053 9.48957836814192 6.807059746946213
186 16 2 0.0 1.8882273148492932 9.394548999581428 7.115014650494961
187 16 1 0.0 1.6906313503388695 9.30730064815997 7.5192742595840905
188 16 1 0.0 1.71688681945687 9.208339447059528 7.993917255599025
189 16 1 0.0 1.9492420937288863 10.160533820285606 6.820439571336192
190 16 1 0.0 1.719932703033778 10.10510594580164 7.255760038222481
191 16 1 0.0 1.8919893178518414 9.986132489908611 7.65202856967525
192 16 1 0.0 1.8323927221042116 9.908585954000879 8.134005832420597
193 17 5 8.861242189860825 3.377207043658677 0.6511385422876316 5.449727200412898
194 17 6 -8.861242189860825 3.3522576140799383 0.4823902592232863 5.862683868912227
195 17 3 0.0 3.275824053552533 0.5636197425830224 6.353640858691559
196 17 3 0.0 3.2822754779799177 0.9897746132913696 6.354430532076803
197 17 1 0.0 3.170406480806301 0.49937449014775265 6.900167391008196
198 17 2 0.0 3.484711389727538 0.5067242583381069 7.229793310939703
199 17 1 0.0 3.2770184440849226 0.49043303217633216 7.638058552955114
200 17 1 0.0 3.2897023334747715 0.5006400893468979 8.123345661357702
201 17 1 0.0 3.4886986577292496 1.1920730108449578 6.77425932188563
202 17 1 0.0 3.2450500051733293 1.2102631360710059 7.204913949485071
203 17 1 0.0 3.408320066158285 1.1985888575465355 7.622039241617325
204 17 1 0.0 3.3332905986530657 1.222554412688407 8.107491126392858
205 18 5 8.861242189860825 3.1423184296511715 1.8387761951131476 5.188490922094715
206 18 6 -8.861242189860825 3.048058825754947 1.9934007576054684 5.596949045871092
207 18 3 0.0 3.124484274983477 1.9628091106282608 6.093640485097105
208 18 3 0.0 3.3440865546267537 1.5977740652804715 6.106849297801492
209 18 1 0.0 3.1450726974784855 2.0707584744485774 6.6430534621373125
210 18 2 0.0 2.86188227468669 1.8968172265716874 6.954569864082965
211 18 1 0.0 3.0031863977868825 2.018778817840711 7.373187573464062
212 18 1 0.0 2.966998232393297 2.0013280066900703 7.857082736204415
213 18 1 0.0 3.249489106106133 1.315098777504502 6.5202950475161074
214 18 1 0.0 3.4380290571387158 1.42672840192526 6.964311340727494
215 18 1 0.0 3.2671111838917692 1.3484650026851404 7.371065359605781
216 18 1 0.0 3.312448142430171 1.365745986103641 7.860466247490212
217 19 5 8.861242189860825 3.196642757127534 2.8789622008489775 5.45549669980041
218 19 6 -8.861242189860825 3.1519902887467475 2.759424566956731 5.883688920984401
219 19 3 0.0 3.2232419420665606 2.8734281309809226 6.3688749402017155
220 19 3 0.0 3.473117338838948 3.2156255964862006 6.322903220859799
221 19 1 0.0 3.1975244180866715 2.8866447100485324 6.928424311239089
222 19 2 0.0 3.5107999660838405 2.711401828561305 7.208858270434937
223 19 1 0.0 3.406619393189701 2.822297335068597 7.641213294027126
224 19 1 0.0 3.507418816518985 2.8265709045105125 8.116176298384929
225 19 1 0.0 3.8277258220952928 3.262264830244595 6.686040920665236
226 19 1 0.0 3.718479953772779 3.4223029282984347 7.141685631209139
227 19 1 0.0 3.9152892999286486 3.320413067273627 7.5311358185445165
228 19 1 0.0 3.9538378859103904 3.387070632447506 8.016870392960824
229 20 5 8.861242189860825 2.9044729891329224 4.367058312289459 5.3281787903124185
230 20 6 -8.861242189860825 3.0601885887441447 4.164122358259124 5.694513770530044
231 20 3 0.0 3.0447616496842818 4.115559014271942 6.195395687878829
232 20 3 0.0 2.802840574291346 4.453563261519131 6.289616388434668
233 20 1 0.0 3.1011851536247375 3.9278868411487693 6.720302452236591
234 20 2 0.0 3.407995968650316 4.079751894211451 7.020800324769393
235 20 1 0.0 3.3295543852821443 3.8863102999696717 7.428856128763597
236 20 1 0.0 3.424893070480551 3.8367939890953724 7.902382593398807
237 20 1 0.0 2.9280191081834857 4.680843111802135 6.728325389767976
238 20 1 0.0 2.8052860580239267 4.489654261284886 7.168259903823525
239 20 1 0.0 3.0198633523328 4.523354057009026 7.560188238426614
240 20 1 0.0 3.037729531994952 4.43147297066557 8.042998725943319
241 21 5 8.861242189860825 3.099108319647194 6.322924256566702 5.259905081103337
242 21 6 -8.861242189860825 3.2002380532488788 6.454489394421283 5.674748495676223
243 21 3 0.0 3.245067497296081 6.33539561002941 6.161868681483186
244 21 3 0.0 3.0609952807911567 5.951039766506178 6.1556862102819006
245 21 1 0.0 3.378122393707946 6.334798019649271 6.706136634845124
246 21 2 0.0 3.095918748988676 6.45040381877 7.044502182843067
247 21 1 0.0 3.299154559236711 6.367310552342481 7.446836603524039
248 21 1 0.0 3.2926475861772424 6.350095031499315 7.932047823294958
249 21 1 0.0 2.796956296298078 5.84207480305826 6.577825328288721
250 21 1 0.0 3.018852224428016 5.7120373138358795 7.000922720501154
251 21 1 0.0 2.883439373860443 5.7794497912530405 7.422711564259688
252 21 1 0.0 2.950837613013142 5.713099117954544 7.905331877519961
253 22 5 8.861242189860825 3.4601307792957328 7.2792851520717194 5.443527366501759
254 22 6 -8.861242189860825 3.309208013847877 7.429993591953369 5.836135252501957
255 22 3 0.0 3.351960973752528 7.43296808339723 6.337774984555759
256 22 3 0.0 3.631258970009057 7.114463774078953 6.384656244376936
257 22 1 0.0 3.311324540759556 7.564032944948759 6.88100812972486
258 22 2 0.0 3.0407332538490124 7.353921678405594 7.181222141847635
259 22 1 0.0 3.1259705181167323 7.515531781485449 7.601578008846225
260 22 1 0.0 3.0568662787012593 7.510556148369835 8.082169820904847
261 22 1 0.0 3.5572921356024594 6.8355499643132935 6.80480785709881
262 22 1 0.0 3.6887849197190112 6.996532797439858 7.254199812951038
263 22 1 0.0 3.5041376813539804 6.90444021735345 7.651957609840944
264 22 1 0.0 3.5084379369343566 6.948556058279734 8.141756141525965
265 23 5 8.861242189860825 3.059652512719758 8.453544841637903 5.4197085356399715
266 23 6 -8.861242189860825 2.882974874884339 8.505611304224711 5.826778262952292
267 23 3 0.0 2.954194460159269 8.617641269415632 6.312428488451629
268 23 3 0.0 3.3803059212874875 8.61652210196136 6.321259595348848
269 23 1 0.0 2.8786179849033613 8.760722680883305 6.848849473975628
270 23 2 0.0 2.883297427032755 8.470681759274903 7.200060533837128
271 23 1 0.0 2.8571096293018687 8.706567504362683 7.592175805245743
272 23 1 0.0 2.8584136002825504 8.728432521703443 8.077241639256192
273 23 1 0.0 3.5770159765133944 8.442881756430001 6.758232784594698
274 23 1 0.0 3.5844871113773813 8.716642266697471 7.1707352936571365
275 23 1 0.0 3.566848318580152 8.583210827404688 7.5981365511733365
276 23 1 0.0 3.580935479802185 8.6927434664396 8.077377048350113
277 24 5 8.861242189860825 3.586642233552836 9.849440725854544 5.474996901254985
278 24 6 -8.861242189860825 3.7385632004719596 9.810421430821197 5.893361791699909
279 24 3 0.0 3.6388289388546626 9.710798598402144 6.37669134001599
280 24 3 0.0 3.2129848681514908 9.70735134285035 6.359511055799532
281 24 1 0.0 3.6827990868325697 9.583169106831557 6.920482574405127
282 24 2 0.0 3.6538461407533123 9.882550726798426 7.2625749807728734
283 24 1 0.0 3.658246555427057 9.657688988893446 7.661949625354265
284 24 1 0.0 3.62746371217136 9.648964853003582 8.146454474310344
285 24 1 0.0 2.9882382017839766 9.890541318272144 6.778702840552729
286 24 1 0.0 2.9581600532850145 9.627994094369932 7.197418991453294
287 24 1 0.0 2.948322338615713 9.773150296598152 7.621234761870443
288 24 1 0.0 2.9059791007599065 9.676494284023393 8.101580436047412
289 25 5 8.861242189860825 4.483582436543291 0.48715695873070336 5.2241988002752935
290 25 6 -8.861242189860825 4.504297602736261 0.38134872006432335 5.6577967311414925
291 25 3 0.0 4.36433074950049 0.48506802202621196 6.130163823931395
292 25 3 0.0 4.184660358637557 0.8662359962094768 6.0662909471069355
293 25 1 0.0 4.257564671960675 0.45428702887532557 6.679331469352749
294 25 2 0.0 4.512232215743683 0.6433372684108477 7.006286039637709
295 25 1 0.0 4.302968981615435 0.5915951661971423 7.410778221587071
296 25 1 0.0 4.274291674865999 0.6708405249476851 7.8889690076149686
297 25 1 0.0 4.251079548472864 1.1927193912649001 6.4520220289730785
298 25 1 0.0 3.9929047271690057 1.1586981079598981 6.873148219975098
299 25 1 0.0 4.113886953183656 1.2758818674103085 7.28838089985365
300 25 1 0.0 4.000497322154205 1.3286655308152844 7.764010984806282
301 26 5 8.861242189860825 4.115558907743368 1.7660449269549459 5.332263071714184
302 26 6 -8.861242189860825 3.9741589876754833 1.7618197387836587 5.756078925029331
303 26 3 0.0 4.070263915666754 1.863610030353573 6.23969205896272
304 26 3 0.0 4.486614964645191 1.9498105082922317 6.210170881693728
305 26 1 0.0 4.0222362847026565 1.9632005794149536 6.788970346201399
306 26 2 0.0 4.1204706860968034 1.664464156949869 7.118517602646704
307 26 1 0.0 4.087366180191552 1.8715857970982854 7.526055317991506
308 26 1 0.0 4.13335104090459 1.8708764513288487 8.009432533074783
309 26 1 0.0 4.757330326450891 1.8004278130600309 6.615373777525546
310 26 1 0.0 4.751498547521487 2.0505604293957904 7.04264256812511
311 26 1 0.0 4.804310340144637 1.8968063503395496 7.460203951233047
312 26 1 0.0 4.844593145113941 1.9846919624798274 7.942407970359833
313 27 5 8.861242189860825 4.274418350833047 3.6450356531254866 5.280647321187857
314 27 6 -8.861242189860825 4.493280900446098 3.6431555533500464 5.670169229086813
315 27 3 0.0 4.51142912461948 3.490001762574523 6.149432874991037
316 27 3 0.0 4.1170744533565715 3.3325427892864314 6.186056409416718
317 27 1 0.0 4.681435676772439 3.360122084516457 6.667275137734069
318 27 2 0.0 4.602110926453111 3.6108733996138476 7.039197446716518
319 27 1 0.0 4.747526203968443 3.3833838164316123 7.409582595131211
320 27 1 0.0 4.7973842169175365 3.3398185286271396 7.890607424938533
321 27 1 0.0 3.9100837732873117 3.400066170125023 6.6469108712021185
322 27 1 0.0 4.039992958926405 3.12400430687191 7.036875492629082
323 27 1 0.0 4.045433316897313 3.2342066420521514 7.47117119690842
324 27 1 0.0 4.115023073849022 3.1048656944535855 7.940527656607442
325 28 5 8.861242189860825 5.021626846374347 4.304642677114243 5.14325707428645
326 28 6 -8.861242189860825 5.01138927048518 4.136472790991637 5.557075571423729
327 28 3 0.0 4.847149426835944 4.177752751253957 6.031206695263733
328 28 3 0.0 4.687552192835299 4.572587198716898 6.014333631356338
329 28 1 0.0 4.705787495836248 4.073377440627266 6.563235046600244
330 28 2 0.0 4.947518553562772 4.200396593696479 6.9278266982313905
331 28 1 0.0 4.711933924006494 4.101268716303908 7.308294591486441
332 28 1 0.0 4.65731767251079 4.112000080157992 7.790653944614657
333 28 1 0.0 4.743600339827155 4.836286402470154 6.446898908166204
334 28 1 0.0 4.458947631089624 4.754697728431767 6.843730205442404
335 28 1 0.0 4.558997771491425 4.804584418825972 7.277652086034532
336 28 1 0.0 4.418968555533747 4.793735964643942 7.748970906982339
337 29 5 8.861242189860825 4.6651374560628005 5.914246094617178 5.1576649637150345
338 29 6 -8.861242189860825 4.749536431576295 6.130040406421151 5.539687600553292
339 29 3 0.0 4.769146219988686 6.116899483322022 6.04260096913032
340 29 3 0.0 4.577635485710544 5.741960602159582 6.108893444861366
341 29 1 0.0 4.876660298582658 6.230783772579768 6.5805625469354405
342 29 2 0.0 4.581456564304756 6.418673808901428 6.872190617385728
343 29 1 0.0 4.763962644166786 6.421021181597656 7.292628831886126
344 29 1 0.0 4.734503201275077 6.507543368455789 7.769509000328553
345 29 1 0.0 4.292015751850393 5.728080878473342 6.530817732433163
346 29 1 0.0 4.491217467342252 5.688788506018904 6.982407967970724
347 29 1 0.0 4.3377283854896485 5.84582954527071 7.373005106557624
348 29 1 0.0 4.3811803718942635 5.8830289800483735 7.861467416453903
349 30 5 8.861242189860825 4.598862506661558 6.789898740271379 5.149428672906808
350 30 6 -8.861242189860825 4.695036128801874 6.6908123459421285 5.574357123348495
351 30 3 0.0 4.555106241782812 6.7014826320533345 6.057870159023963
352 30 3 0.0 4.21626674730037 6.957981648132196 6.025524061591583
353 30 1 0.0 4.511654714215839 6.6057770168040255 6.608219109774371
354 30 2 0.0 4.6719695178324585 6.879872704050212 6.934816047802788
355 30 1 0.0 4.537732149236262 6.723118977866185 7.344072531877572
356 30 1 0.0 4.507968513769727 6.763476766379331 7.8270363168118315
357 30 1 0.0 4.15061960625356 7.264529468369676 6.427407465482499
358 30 1 0.0 3.9660461459491336 7.1002319554208855 6.856473800459925
359 30 1 0.0 4.047053006359457 7.245699482809565 7.272483413295257
360 30 1 0.0 3.9543211740645416 7.22346561751351 7.754949747636543
361 31 5 8.861242189860825 4.150787595709264 8.343705860512506 5.231495303190906
362 31 6 -8.861242189860825 4.019658312880306 8.309579611613282 5.657256007639267
363 31 3 0.0 4.074028824938697 8.460269650098349 6.134556168622738
364 31 3 0.0 4.434054788653189 8.684905317712694 6.0949286456550515
365 31 1 0.0 3.994096093001564 8.561576608017498 6.679789353849445
366 31 2 0.0 4.190402125760781 8.3311275310719 7.020159749730742
367 31 1 0.0 4.086930329241874 8.531885530973852 7.418998168589783
368 31 1 0.0 4.130139688787454 8.569130879321637 7.901195615619519
369 31 1 0.0 4.739790514020171 8.657867015987485 6.501851218163705
370 31 1 0.0 4.646845211206106 8.909294586161385 6.918149551648381
371 31 1 0.0 4.749925685372684 8.802687484431894 7.340992610756542
372 31 1 0.0 4.7568471647756265 8.920819546569646 7.818343854891769
373 32 5 8.861242189860825 4.633129971907883 9.265171551071179 5.199682427449235
374 32 6 -8.861242189860825 4.856975718781205 9.370172897127704 5.571837591412569
375 32 3 0.0 4.880993256663886 9.355786631988831 6.074525642995633
376 32 3 0.0 4.486846874655888 9.216770051288561 6.158031559732453
377 32 1 0.0 5.057395722320204 9.373641733757578 6.606028167054951
378 32 2 0.0 4.983327368370782 9.7180905699304 6.894755928376137
379 32 1 0.0 5.133062656478187 9.601417142044657 7.311947642433649
380 32 1 0.0 5.189015643242104 9.692640742292813 7.785567912985748
381 32 1 0.0 4.285922165287961 9.410513474649045 6.584510317249041
382 32 1 0.0 4.4203130836407665 9.252683145579415 7.034163097859736
383 32 1 0.0 4.4315403425990665 9.47892972627223 7.420780925062011
384 32 1 0.0 4.5069124707772295 9.484400179099191 7.906740200824142
385 33 5 8.861242189860825 5.429563817205216 0.613669319723964 5.429002247066368
386 33 6 -8.861242189860825 5.3722954592058345 0.38045305500979476 5.8057809303492185
387 33 3 0.0 5.385996528658925 0.37130195566452107 6.308978329022526
388 33 3 0.0 5.5787014172543286 0.7449283475457908 6.379109374151361
389 33 1 0.0 5.315255266882454 0.23280804210687586 6.847259554238479
390 33 2 0.0 5.630539258375666 0.03535821325265753 7.1101367342079085
391 33 1 0.0 5.476350495119236 0.012671663206262673 7.5411743396322
392 33 1 0.0 5.538022311274959 10.279217046136235 8.01075153466315
393 33 1 0.0 5.8915727021327235 0.7432244565895572 6.781477413882489
394 33 1 0.0 5.7224838715885 0.7605953104842513 7.246521686657699
395 33 1 0.0 5.902706693451822 0.5881543359879465 7.618772617783334
396 33 1 0.0 5.892032832739674 0.5291020703211923 8.106897806517344
397 34 5 8.861242189860825 5.700094790944309 2.1558490863683764 5.358081136333862
398 34 6 -8.861242189860825 5.8279419467882105 1.9651441818607618 5.741380511849789
399 34 3 0.0 5.781303985617008 1.938806914319102 6.241990472668791
400 34 3 0.0 5.543731916267648 2.28661617310282 6.307093849378674
401 34 1 0.0 5.801039427588284 1.7727585933738352 6.776752134600237
402 34 2 0.0 6.093496738138585 1.9297097231280016 7.088729547772581
403 34 1 0.0 5.985471394827494 1.7562414333368526 7.498999640756359
404 34 1 0.0 6.0509640193690055 1.724953089275614 7.979104210932952
405 34 1 0.0 5.648812070721276 2.5295026128880886 6.742703447587159
406 34 1 0.0 5.49475226817941 2.3607936660184117 7.181977648181451
407 34 1 0.0 5.686418770950349 2.40604376797585 7.5844739722862995
408 34 1 0.0 5.672869397081582 2.334813437524087 8.070899666253004
409 35 5 8.861242189860825 5.712373266628174 2.877530301276498 5.394106948120234
410 35 6 -8.861242189860825 5.4711532299621295 2.9336542476438 5.765986853044559
411 35 3 0.0 5.46214061062718 3.0464559433946063 6.256571844746746
412 35 3 0.0 5.880764703743765 3.0392298317710327 6.336270466207637
413 35 1 0.0 5.300402889217061 3.1926101404508724 6.77272243109353
414 35 2 0.0 5.242217142102649 2.903843134841691 7.120174409443598
415 35 1 0.0 5.154584671944803 3.141541795899703 7.502145832802368
416 35 1 0.0 5.075401164492891 3.1651937911762578 7.980621744332857
417 35 1 0.0 5.999347112786383 2.8644031700461 6.800129533337604
418 35 1 0.0 5.9420655549621975 3.139563395594429 7.207762491070778
419 35 1 0.0 5.851507822023394 3.0079941317355807 7.626421943062658
420 35 1 0.0 5.787197811782935 3.1190981252275183 8.101171799800401
421 36 5 8.861242189860825 5.665845027815917 4.526408928355144 5.391131335984345
422 36 6 -8.861242189860825 5.458445237173672 4.535380219299051 5.7867782870807565
423 36 3 0.0 5.495550780670229 4.533893823490009 6.288873948508232
424 36 3 0.0 5.909660625580259 4.440457549403679 6.326727842932718
425 36 1 0.0 5.389957293187476 4.583594346711186 6.836880737720736