Lipid soup setup

5120 atoms
1408 bonds
1024 angles
0 dihedrals
0 impropers

6 atom types
2 bond types
3 angle types
0 dihedral types
0 improper types

0 10.373608390765556 xlo xhi
0 10.373608390765556 ylo yhi
0 15.859482352941175 zlo zhi

Masses

1 1
2 1
3 1
4 1
5 1
6 1

Atoms

1 1 5 8.861242189860825 0.5408848083618862 0.66550766871205 4.723521762403224
2 1 6 -8.861242189860825 0.677021636326583 0.4804961261382251 5.1067568864689825
3 1 3 0.0 0.6321014463879296 0.45248614150250577 5.60743313041466
4 1 3 0.0 0.38029672788416824 0.7901106148967143 5.672658255896875
5 1 1 0.0 0.6593667112118993 0.2876738187106427 6.142246248447732
6 1 2 0.0 0.9453792850435211 0.4568491954150282 6.453808989291806
7 1 1 0.0 0.8451610714676533 0.2792293394551675 6.864284040901429
8 1 1 0.0 0.9124566523147202 0.2509417511061481 7.344325455564512
9 1 1 0.0 0.475651958683785 1.0373887145403975 6.108034305925673
10 1 1 0.0 0.32927428903871886 0.8626174690225861 6.547565356467386
11 1 1 0.0 0.5193500005133579 0.9160282645578548 6.949815803026759
12 1 1 0.0 0.50934667168401 0.8445380806046574 7.436289222927747
13 2 5 8.861242189860825 0.6234443339941919 2.122671605818347 5.058685660118108
14 2 6 -8.861242189860825 0.4728996956395155 1.9643844873866323 5.448446057199158
15 2 3 0.0 0.45588744417196236 2.008494003619408 5.949688531289976
16 2 3 0.0 0.7562367967455261 2.3062322070340855 6.002532139471922
17 2 1 0.0 0.3149938535878805 1.9619412820102131 6.489978645833384
18 2 2 0.0 0.5337152681776104 1.705170495668112 6.796123297977199
19 2 1 0.0 0.35775137361357456 1.7820775916123344 7.212301478520997
20 2 1 0.0 0.35574158392612326 1.7149263310513494 7.693191602768069
21 2 1 0.0 1.0292927663859321 2.250183193763307 6.429252573829159
22 2 1 0.0 0.8505648052389215 2.373395086389797 6.8742627987010145
23 2 1 0.0 0.9442028068522557 2.195773058951995 7.274848932949645
24 2 1 0.0 0.8886670786822725 2.1990335568960826 7.763492415776623
25 3 5 8.861242189860825 0.4029216147114083 3.062485105416058 4.812022219340503
26 3 6 -8.861242189860825 0.5412823679774299 3.2232754276240208 5.205258079062695
27 3 3 0.0 0.6249460236959593 3.1412990909280594 5.694910360675567
28 3 3 0.0 0.433791970144091 2.7624414426770354 5.734624696400071
29 3 1 0.0 0.8035777536990572 3.1796153288403852 6.22458397581849
30 3 2 0.0 0.5532731004552677 3.3283243454240026 6.574909611344027
31 3 1 0.0 0.7882452684386624 3.271601269975485 6.964335913155175
32 3 1 0.0 0.822526753292659 3.2923216852253367 7.448240952223752
33 3 1 0.0 0.20444021561486964 2.6933804851715313 6.184535510212886
34 3 1 0.0 0.45887460964963644 2.5910087374540534 6.596775876046095
35 3 1 0.0 0.3609623667060396 2.6944291361892185 7.021633881427575
36 3 1 0.0 0.4677238627167897 2.664094298134664 7.500746688425304
37 4 5 8.861242189860825 0.8124075732600022 4.686263907781409 4.743604695825875
38 4 6 -8.861242189860825 0.9904105354482108 4.675616230487305 5.153279249040981
39 4 3 0.0 0.9593527036650475 4.512638125857748 5.628624000196662
40 4 3 0.0 0.5630669862485187 4.355926437297354 5.621602951139519
41 4 1 0.0 1.0754654507137213 4.371578277445412 6.158295140404363
42 4 2 0.0 0.9590352400914992 4.614972152722943 6.5253077689159475
43 4 1 0.0 1.0655630519702672 4.379426723286819 6.903794819586822
44 4 1 0.0 1.0660459469688663 4.325860010362964 7.38639094133547
45 4 1 0.0 0.3102748738796236 4.414788351201629 6.060263191597344
46 4 1 0.0 0.39930317830152057 4.130338619626383 6.455638034043599
47 4 1 0.0 0.36061114289661145 4.2316255493835255 6.89041475281556
48 4 1 0.0 0.38177502814502356 4.09246689176 7.361641088273482
49 5 5 8.861242189860825 0.4475000818044968 5.603361075564125 5.085913778708183
50 5 6 -8.861242189860825 0.4139048479992966 5.77769265470821 5.495927836894285
51 5 3 0.0 0.5830988678662823 5.79076324125157 5.969933772894704
52 5 3 0.0 0.8391231788662505 5.450150023837022 5.960746467024798
53 5 1 0.0 0.6926104294602012 5.939923015809586 6.498791170650743
54 5 2 0.0 0.4917068020052864 5.763057825648149 6.867371255489503
55 5 1 0.0 0.6936508179328008 5.928053470576417 7.2443027123132
56 5 1 0.0 0.7490488204934957 5.942552445699024 7.726474345324269
57 5 1 0.0 0.852849745934759 5.190653888022879 6.39922647842436
58 5 1 0.0 1.106720528232795 5.351724516599862 6.792628096781564
59 5 1 0.0 1.0227947949329326 5.287442662485207 7.2280718077835475
60 5 1 0.0 1.1551549444476041 5.344560907396219 7.698269211198572
61 6 5 8.861242189860825 0.9668501561322759 6.8396108766723565 4.999356202156838
62 6 6 -8.861242189860825 0.94905517264096 7.079596933226119 5.375815626735173
63 6 3 0.0 0.8853586900320709 7.087180141487299 5.875179559163911
64 6 3 0.0 0.7494110859255472 6.687401433713058 5.93301944192399
65 6 1 0.0 0.8803875352833608 7.236119856747351 6.4152941918752875
66 6 2 0.0 0.5134664747720343 7.380347847372765 6.643465320698656
67 6 1 0.0 0.6194862230509547 7.428346687220772 7.086791606751697
68 6 1 0.0 0.4961753851450993 7.524736756749011 7.546434984164207
69 6 1 0.0 0.4028403537232575 6.6390676722642095 6.30361890040699
70 6 1 0.0 0.5266451848843692 6.650000400894948 6.782901483072711
71 6 1 0.0 0.28580550785341086 6.791573022679358 7.133244677181328
72 6 1 0.0 0.23948071417610306 6.852321049089057 7.619074886243686
73 7 5 8.861242189860825 0.30615770659505226 8.590919020976953 4.7537099145823
74 7 6 -8.861242189860825 0.15889940990532017 8.718865533569284 5.155675523935927
75 7 3 0.0 0.2468372639362768 8.760550065631406 5.6496476057079255
76 7 3 0.0 0.6032929773046385 8.528357291199582 5.675648724882877
77 7 1 0.0 0.22494400257497668 8.906451111836619 6.190170627838729
78 7 2 0.0 0.049033414481981674 8.650357472102563 6.523286755697575
79 7 1 0.0 0.12825866081082044 8.851521341763778 6.92743862003142
80 7 1 0.0 0.10890502204482044 8.855402258847743 7.412597375282713
81 7 1 0.0 0.6456613196467014 8.26348111085859 6.109050289483274
82 7 1 0.0 0.7722173862167181 8.47762706746036 6.5371671264639115
83 7 1 0.0 0.6570080131390179 8.362993150662874 6.954746791203738
84 7 1 0.0 0.6960717799282401 8.43373482785958 7.4398621779841685
85 8 5 8.861242189860825 1.1291283380149952 9.330269318649018 4.968748387897005
86 8 6 -8.861242189860825 1.228253056781213 9.269579987439121 5.400167861655836
87 8 3 0.0 1.0947227937165254 9.329578745586431 5.881882405573315
88 8 3 0.0 0.7617316184888812 9.590240294754599 5.828753766447046
89 8 1 0.0 1.0559347840230342 9.287645640777802 6.4392590041629525
90 8 2 0.0 1.2268598139030198 9.587402915051786 6.736622506690563
91 8 1 0.0 1.0940815276520721 9.473596976953297 7.160297389957493
92 8 1 0.0 1.0713801028763001 9.560334016845479 7.637508007894452
93 8 1 0.0 0.7085018687150586 9.935085605945812 6.200290694129035
94 8 1 0.0 0.5254751761921926 9.81691035980868 6.644919523429876
95 8 1 0.0 0.6151728937108867 9.999127409242323 7.044341827886138
96 8 1 0.0 0.5280236062824442 10.025101695619536 7.5276612247733325
97 9 5 8.861242189860825 1.9987019572077376 1.1264487591026602 5.116512556108157
98 9 6 -8.861242189860825 1.810603254930092 1.0510714415162974 5.514719544151415
99 9 3 0.0 1.8664967738652822 1.0147471163844826 6.0137541540731405
100 9 3 0.0 2.2921062817826603 1.0200697494096613 6.035627302855433
101 9 1 0.0 1.773530123422146 0.9898155341929282 6.565720806820421
102 9 2 0.0 1.7782346566408245 0.6084475357090622 6.814781359808515
103 9 1 0.0 1.735394928111751 0.7161358239778323 7.258234019950227
104 9 1 0.0 1.7241302419521825 0.5924592406945058 7.72764413087773
105 9 1 0.0 2.483117503675906 0.7282902536873355 6.407340663564721
106 9 1 0.0 2.472280459834495 0.866759542391867 6.882596141583974
107 9 1 0.0 2.448138176626341 0.6116662178398211 7.250198449601752
108 9 1 0.0 2.447173942269403 0.5736592696952723 7.74052675125722
109 10 5 8.861242189860825 2.0758587788835374 2.3047895016199895 5.137610807221053
110 10 6 -8.861242189860825 1.9924216826081136 2.4762656331071566 5.541672503533453
111 10 3 0.0 1.9441610767754767 2.3993937825435507 6.036890351021368
112 10 3 0.0 1.9463191856110584 1.9732112510186015 6.040633435162215
113 10 1 0.0 1.906988184042023 2.468901787748891 6.591614048810121
114 10 2 0.0 1.5199128015951975 2.456330020079806 6.831425309839394
115 10 1 0.0 1.6175307221112434 2.479430014121336 7.278660598503947
116 10 1 0.0 1.4830505437206496 2.4715486228551833 7.745159910335836
117 10 1 0.0 1.6447937240081654 1.7686266129008201 6.397030552707093
118 10 1 0.0 1.7722449869768253 1.7581745225446055 6.875367133156202
119 10 1 0.0 1.508832580928651 1.7684521734455805 7.237713907891932
120 10 1 0.0 1.45944681947474 1.7487684529160807 7.726631998139395
121 11 5 8.861242189860825 1.9361695100105012 2.903301462883585 4.822858733201984
122 11 6 -8.861242189860825 1.99889626862075 2.7379150786514357 5.233156630828088
123 11 3 0.0 1.9818166340509595 2.811712814041877 5.730892770051646
124 11 3 0.0 1.918667726264072 3.2331870693562177 5.735571000720459
125 11 1 0.0 1.9682049238918853 2.7379618928780536 6.286146847573154
126 11 2 0.0 2.3212866580882405 2.8006057412110126 6.567045190747447
127 11 1 0.0 2.18009469683247 2.7557503708093014 7.000790619980236
128 11 1 0.0 2.2607688931685472 2.7739506540570247 7.479255944097996
129 11 1 0.0 2.1476403833666557 3.471679162861577 6.123494224023386
130 11 1 0.0 1.9689551853789706 3.4552542839240536 6.584970960374046
131 11 1 0.0 2.190346483958442 3.475583454075259 6.974020479951921
132 11 1 0.0 2.183190538981706 3.4930492667558224 7.465458206524057
133 12 5 8.861242189860825 1.52141467629235 4.519261331553335 4.954659164841773
134 12 6 -8.861242189860825 1.4421693099965625 4.605754381674659 5.385786514163165
135 12 3 0.0 1.6181674590122093 4.625455625403663 5.857077927721237
136 12 3 0.0 1.9926882068762048 4.430613492943278 5.798588859278242
137 12 1 0.0 1.686159770872183 4.7342129122397605 6.402495626112309
138 12 2 0.0 1.6007603407485023 4.440830227216459 6.740324546452472
139 12 1 0.0 1.736674545263206 4.623525781320438 7.138108325758816
140 12 1 0.0 1.8095520753063539 4.595043840967741 7.617322565255554
141 12 1 0.0 2.140519329432859 4.145057054707072 6.1940567635744195
142 12 1 0.0 2.3260738743348948 4.3440866795863124 6.607718067188252
143 12 1 0.0 2.303189816168123 4.192177280466517 7.028653650467212
144 12 1 0.0 2.4270846627926055 4.236165760304636 7.502554886887755
145 13 5 8.861242189860825 1.7548471332307884 5.8571534342773415 4.915812633138917
146 13 6 -8.861242189860825 1.95283091015824 5.704856049102647 5.2862712646674925
147 13 3 0.0 1.9298561682513908 5.631568173059264 5.783845512809751
148 13 3 0.0 1.580498625677763 5.859733486266507 5.870679351752885
149 13 1 0.0 2.021536775354489 5.4519226722454155 6.3065822801685965
150 13 2 0.0 2.240076818366055 5.687397088185302 6.629517089369158
151 13 1 0.0 2.2135792274351394 5.4606735445781895 7.026979771902441
152 13 1 0.0 2.2959435906302708 5.426247120846098 7.504263309930269
153 13 1 0.0 1.5957064915558703 6.096461767855292 6.321811067612425
154 13 1 0.0 1.5253649162603464 5.855013365633448 6.748324474987072
155 13 1 0.0 1.6943107923990177 5.943649074575033 7.153772268131486
156 13 1 0.0 1.7185557852322773 5.842185051022176 7.634380771496203
157 14 5 8.861242189860825 1.520155789910668 7.277568845651703 5.070911466613412
158 14 6 -8.861242189860825 1.4094788343139846 7.272158841262563 5.503754406354714
159 14 3 0.0 1.5585968257728187 7.3059346277607915 5.983443998512683
160 14 3 0.0 1.9805164343609474 7.28977676742289 5.92536658700195
161 14 1 0.0 1.5721061504776448 7.367299282074645 6.540205567747834
162 14 2 0.0 1.6131713501903915 7.026766999910651 6.839949218442667
163 14 1 0.0 1.6590027419532984 7.200359139599147 7.2616689406811545
164 14 1 0.0 1.7340190868939993 7.147423603760789 7.738469758303278
165 14 1 0.0 2.2304234185010725 7.044861317290106 6.295980004334838
166 14 1 0.0 2.314628489969311 7.251646576432928 6.737917010435407
167 14 1 0.0 2.3537237982596224 7.054801753360108 7.138554731361222
168 14 1 0.0 2.44534355658032 7.088931831241723 7.620538402172324
169 15 5 8.861242189860825 1.9263400203895726 8.885469958859046 4.942802295015713
170 15 6 -8.861242189860825 1.7273310895602756 8.801311106699568 5.333883361017268
171 15 3 0.0 1.7557072712800166 8.801224804585894 5.8365501182411
172 15 3 0.0 2.1725281040463003 8.877860976624838 5.88168889089704
173 15 1 0.0 1.6322077830118964 8.790600949223178 6.382962579413951
174 15 2 0.0 1.6821912660135696 8.428989991128594 6.655421766023744
175 15 1 0.0 1.5937098797913771 8.55149586992239 7.088140641866503
176 15 1 0.0 1.5719912667537803 8.45272602974362 7.563052700216957
177 15 1 0.0 2.383509168494075 8.641731297395978 6.281089878094967
178 15 1 0.0 2.3194977179918794 8.801519902101925 6.74534098561287
179 15 1 0.0 2.312956515030879 8.565798416634669 7.1263652694616155
180 15 1 0.0 2.2861829699585705 8.554210576761273 7.617299277767031
181 16 5 8.861242189860825 1.7495506723101588 9.939697214655164 5.02010766712557
182 16 6 -8.861242189860825 1.7185078955267277 9.686552480052958 5.386966981419602
183 16 3 0.0 1.663413939828932 9.663499034048478 5.886879252351069
184 16 3 0.0 1.7126872179089971 10.076390338721948 5.980383973525617
185 16 1 0.0 1.566314223400053 9.48957836814192 6.410572688122683
186 16 2 0.0 1.8882273148492932 9.394548999581428 6.718527591671432
187 16 1 0.0 1.6906313503388695 9.30730064815997 7.122787200760561
188 16 1 0.0 1.71688681945687 9.208339447059528 7.597430196775496
189 16 1 0.0 1.9492420937288863 10.160533820285606 6.423952512512662
190 16 1 0.0 1.719932703033778 10.10510594580164 6.859272979398951
191 16 1 0.0 1.8919893178518414 9.986132489908611 7.25554151085172
192 16 1 0.0 1.8323927221042116 9.908585954000879 7.737518773597067
193 17 5 8.861242189860825 3.377207043658677 0.6511385422876316 5.053240141589368
194 17 6 -8.861242189860825 3.3522576140799383 0.4823902592232863 5.4661968100886975
195 17 3 0.0 3.275824053552533 0.5636197425830224 5.9571537998680295
196 17 3 0.0 3.2822754779799177 0.9897746132913696 5.957943473253273
197 17 1 0.0 3.170406480806301 0.49937449014775265 6.503680332184667
198 17 2 0.0 3.484711389727538 0.5067242583381069 6.833306252116174
199 17 1 0.0 3.2770184440849226 0.49043303217633216 7.241571494131584
200 17 1 0.0 3.2897023334747715 0.5006400893468979 7.726858602534172
201 17 1 0.0 3.4886986577292496 1.1920730108449578 6.3777722630621
202 17 1 0.0 3.2450500051733293 1.2102631360710059 6.808426890661542
203 17 1 0.0 3.408320066158285 1.1985888575465355 7.225552182793796
204 17 1 0.0 3.3332905986530657 1.222554412688407 7.711004067569329
205 18 5 8.861242189860825 3.1423184296511715 1.8387761951131476 4.792003863271185
206 18 6 -8.861242189860825 3.048058825754947 1.9934007576054684 5.200461987047563
207 18 3 0.0 3.124484274983477 1.9628091106282608 5.697153426273576
208 18 3 0.0 3.3440865546267537 1.5977740652804715 5.710362238977963
209 18 1 0.0 3.1450726974784855 2.0707584744485774 6.246566403313783
210 18 2 0.0 2.86188227468669 1.8968172265716874 6.558082805259436
211 18 1 0.0 3.0031863977868825 2.018778817840711 6.976700514640532
212 18 1 0.0 2.966998232393297 2.0013280066900703 7.460595677380885
213 18 1 0.0 3.249489106106133 1.315098777504502 6.123807988692578
214 18 1 0.0 3.4380290571387158 1.42672840192526 6.567824281903964
215 18 1 0.0 3.2671111838917692 1.3484650026851404 6.974578300782252
216 18 1 0.0 3.312448142430171 1.365745986103641 7.463979188666682
217 19 5 8.861242189860825 3.196642757127534 2.8789622008489775 5.05900964097688
218 19 6 -8.861242189860825 3.1519902887467475 2.759424566956731 5.487201862160871
219 19 3 0.0 3.2232419420665606 2.8734281309809226 5.972387881378186
220 19 3 0.0 3.473117338838948 3.2156255964862006 5.926416162036269
221 19 1 0.0 3.1975244180866715 2.8866447100485324 6.53193725241556
222 19 2 0.0 3.5107999660838405 2.711401828561305 6.812371211611407
223 19 1 0.0 3.406619393189701 2.822297335068597 7.244726235203596
224 19 1 0.0 3.507418816518985 2.8265709045105125 7.7196892395614
225 19 1 0.0 3.8277258220952928 3.262264830244595 6.289553861841706
226 19 1 0.0 3.718479953772779 3.4223029282984347 6.745198572385609
227 19 1 0.0 3.9152892999286486 3.320413067273627 7.134648759720987
228 19 1 0.0 3.9538378859103904 3.387070632447506 7.620383334137294
229 20 5 8.861242189860825 2.9044729891329224 4.367058312289459 4.931691731488889
230 20 6 -8.861242189860825 3.0601885887441447 4.164122358259124 5.298026711706514
231 20 3 0.0 3.0447616496842818 4.115559014271942 5.798908629055299
232 20 3 0.0 2.802840574291346 4.453563261519131 5.8931293296111384
233 20 1 0.0 3.1011851536247375 3.9278868411487693 6.323815393413061
234 20 2 0.0 3.407995968650316 4.079751894211451 6.6243132659458634
235 20 1 0.0 3.3295543852821443 3.8863102999696717 7.032369069940067
236 20 1 0.0 3.424893070480551 3.8367939890953724 7.505895534575277
237 20 1 0.0 2.9280191081834857 4.680843111802135 6.331838330944446
238 20 1 0.0 2.8052860580239267 4.489654261284886 6.771772844999996
239 20 1 0.0 3.0198633523328 4.523354057009026 7.163701179603084
240 20 1 0.0 3.037729531994952 4.43147297066557 7.646511667119789
241 21 5 8.861242189860825 3.099108319647194 6.322924256566702 4.863418022279808
242 21 6 -8.861242189860825 3.2002380532488788 6.454489394421283 5.278261436852693
243 21 3 0.0 3.245067497296081 6.33539561002941 5.765381622659656
244 21 3 0.0 3.0609952807911567 5.951039766506178 5.759199151458371
245 21 1 0.0 3.378122393707946 6.334798019649271 6.309649576021594
246 21 2 0.0 3.095918748988676 6.45040381877 6.648015124019538
247 21 1 0.0 3.299154559236711 6.367310552342481 7.050349544700509
248 21 1 0.0 3.2926475861772424 6.350095031499315 7.535560764471429
249 21 1 0.0 2.796956296298078 5.84207480305826 6.181338269465192
250 21 1 0.0 3.018852224428016 5.7120373138358795 6.604435661677624
251 21 1 0.0 2.883439373860443 5.7794497912530405 7.026224505436159
252 21 1 0.0 2.950837613013142 5.713099117954544 7.508844818696431
253 22 5 8.861242189860825 3.4601307792957328 7.2792851520717194 5.0470403076782295
254 22 6 -8.861242189860825 3.309208013847877 7.429993591953369 5.439648193678427
255 22 3 0.0 3.351960973752528 7.43296808339723 5.9412879257322295
256 22 3 0.0 3.631258970009057 7.114463774078953 5.9881691855534065
257 22 1 0.0 3.311324540759556 7.564032944948759 6.48452107090133
258 22 2 0.0 3.0407332538490124 7.353921678405594 6.784735083024105
259 22 1 0.0 3.1259705181167323 7.515531781485449 7.205090950022695
260 22 1 0.0 3.0568662787012593 7.510556148369835 7.685682762081317
261 22 1 0.0 3.5572921356024594 6.8355499643132935 6.40832079827528
262 22 1 0.0 3.6887849197190112 6.996532797439858 6.857712754127508
263 22 1 0.0 3.5041376813539804 6.90444021735345 7.255470551017415
264 22 1 0.0 3.5084379369343566 6.948556058279734 7.7452690827024355
265 23 5 8.861242189860825 3.059652512719758 8.453544841637903 5.023221476816442
266 23 6 -8.861242189860825 2.882974874884339 8.505611304224711 5.430291204128762
267 23 3 0.0 2.954194460159269 8.617641269415632 5.915941429628099
268 23 3 0.0 3.3803059212874875 8.61652210196136 5.924772536525318
269 23 1 0.0 2.8786179849033613 8.760722680883305 6.452362415152098
270 23 2 0.0 2.883297427032755 8.470681759274903 6.803573475013598
271 23 1 0.0 2.8571096293018687 8.706567504362683 7.1956887464222135
272 23 1 0.0 2.8584136002825504 8.728432521703443 7.680754580432662
273 23 1 0.0 3.5770159765133944 8.442881756430001 6.3617457257711685
274 23 1 0.0 3.5844871113773813 8.716642266697471 6.774248234833607
275 23 1 0.0 3.566848318580152 8.583210827404688 7.201649492349807
276 23 1 0.0 3.580935479802185 8.6927434664396 7.680889989526584
277 24 5 8.861242189860825 3.586642233552836 9.849440725854544 5.078509842431456
278 24 6 -8.861242189860825 3.7385632004719596 9.810421430821197 5.496874732876379
279 24 3 0.0 3.6388289388546626 9.710798598402144 5.98020428119246
280 24 3 0.0 3.2129848681514908 9.70735134285035 5.963023996976002
281 24 1 0.0 3.6827990868325697 9.583169106831557 6.523995515581597
282 24 2 0.0 3.6538461407533123 9.882550726798426 6.866087921949344
283 24 1 0.0 3.658246555427057 9.657688988893446 7.2654625665307355
284 24 1 0.0 3.62746371217136 9.648964853003582 7.749967415486814
285 24 1 0.0 2.9882382017839766 9.890541318272144 6.382215781729199
286 24 1 0.0 2.9581600532850145 9.627994094369932 6.800931932629764
287 24 1 0.0 2.948322338615713 9.773150296598152 7.224747703046913
288 24 1 0.0 2.9059791007599065 9.676494284023393 7.705093377223882
289 25 5 8.861242189860825 4.483582436543291 0.48715695873070336 4.827711741451764
290 25 6 -8.861242189860825 4.504297602736261 0.38134872006432335 5.261309672317963
291 25 3 0.0 4.36433074950049 0.48506802202621196 5.733676765107865
292 25 3 0.0 4.184660358637557 0.8662359962094768 5.669803888283406
293 25 1 0.0 4.257564671960675 0.45428702887532557 6.282844410529219
294 25 2 0.0 4.512232215743683 0.6433372684108477 6.60979898081418
295 25 1 0.0 4.302968981615435 0.5915951661971423 7.014291162763541
296 25 1 0.0 4.274291674865999 0.6708405249476851 7.492481948791439
297 25 1 0.0 4.251079548472864 1.1927193912649001 6.055534970149549
298 25 1 0.0 3.9929047271690057 1.1586981079598981 6.4766611611515685
299 25 1 0.0 4.113886953183656 1.2758818674103085 6.891893841030121
300 25 1 0.0 4.000497322154205 1.3286655308152844 7.367523925982752
301 26 5 8.861242189860825 4.115558907743368 1.7660449269549459 4.9357760128906545
302 26 6 -8.861242189860825 3.9741589876754833 1.7618197387836587 5.359591866205801
303 26 3 0.0 4.070263915666754 1.863610030353573 5.84320500013919
304 26 3 0.0 4.486614964645191 1.9498105082922317 5.813683822870199
305 26 1 0.0 4.0222362847026565 1.9632005794149536 6.392483287377869
306 26 2 0.0 4.1204706860968034 1.664464156949869 6.722030543823174
307 26 1 0.0 4.087366180191552 1.8715857970982854 7.129568259167977
308 26 1 0.0 4.13335104090459 1.8708764513288487 7.612945474251253
309 26 1 0.0 4.757330326450891 1.8004278130600309 6.2188867187020165
310 26 1 0.0 4.751498547521487 2.0505604293957904 6.646155509301581
311 26 1 0.0 4.804310340144637 1.8968063503395496 7.063716892409517
312 26 1 0.0 4.844593145113941 1.9846919624798274 7.545920911536303
313 27 5 8.861242189860825 4.274418350833047 3.6450356531254866 4.884160262364327
314 27 6 -8.861242189860825 4.493280900446098 3.6431555533500464 5.2736821702632835
315 27 3 0.0 4.51142912461948 3.490001762574523 5.752945816167507
316 27 3 0.0 4.1170744533565715 3.3325427892864314 5.7895693505931884
317 27 1 0.0 4.681435676772439 3.360122084516457 6.270788078910539
318 27 2 0.0 4.602110926453111 3.6108733996138476 6.642710387892988
319 27 1 0.0 4.747526203968443 3.3833838164316123 7.013095536307682
320 27 1 0.0 4.7973842169175365 3.3398185286271396 7.494120366115004
321 27 1 0.0 3.9100837732873117 3.400066170125023 6.250423812378589
322 27 1 0.0 4.039992958926405 3.12400430687191 6.640388433805552
323 27 1 0.0 4.045433316897313 3.2342066420521514 7.074684138084891
324 27 1 0.0 4.115023073849022 3.1048656944535855 7.544040597783912
325 28 5 8.861242189860825 5.021626846374347 4.304642677114243 4.74677001546292
326 28 6 -8.861242189860825 5.01138927048518 4.136472790991637 5.160588512600199
327 28 3 0.0 4.847149426835944 4.177752751253957 5.634719636440203
328 28 3 0.0 4.687552192835299 4.572587198716898 5.617846572532808
329 28 1 0.0 4.705787495836248 4.073377440627266 6.166747987776715
330 28 2 0.0 4.947518553562772 4.200396593696479 6.531339639407861
331 28 1 0.0 4.711933924006494 4.101268716303908 6.911807532662912
332 28 1 0.0 4.65731767251079 4.112000080157992 7.394166885791128
333 28 1 0.0 4.743600339827155 4.836286402470154 6.050411849342674
334 28 1 0.0 4.458947631089624 4.754697728431767 6.447243146618875
335 28 1 0.0 4.558997771491425 4.804584418825972 6.8811650272110025
336 28 1 0.0 4.418968555533747 4.793735964643942 7.352483848158809
337 29 5 8.861242189860825 4.6651374560628005 5.914246094617178 4.761177904891505
338 29 6 -8.861242189860825 4.749536431576295 6.130040406421151 5.143200541729763
339 29 3 0.0 4.769146219988686 6.116899483322022 5.6461139103067906
340 29 3 0.0 4.577635485710544 5.741960602159582 5.712406386037836
341 29 1 0.0 4.876660298582658 6.230783772579768 6.184075488111911
342 29 2 0.0 4.581456564304756 6.418673808901428 6.4757035585621985
343 29 1 0.0 4.763962644166786 6.421021181597656 6.896141773062596
344 29 1 0.0 4.734503201275077 6.507543368455789 7.373021941505024
345 29 1 0.0 4.292015751850393 5.728080878473342 6.134330673609633
346 29 1 0.0 4.491217467342252 5.688788506018904 6.585920909147195
347 29 1 0.0 4.3377283854896485 5.84582954527071 6.9765180477340945
348 29 1 0.0 4.3811803718942635 5.8830289800483735 7.464980357630373
349 30 5 8.861242189860825 4.598862506661558 6.789898740271379 4.752941614083278
350 30 6 -8.861242189860825 4.695036128801874 6.6908123459421285 5.177870064524965
351 30 3 0.0 4.555106241782812 6.7014826320533345 5.661383100200434
352 30 3 0.0 4.21626674730037 6.957981648132196 5.629037002768054
353 30 1 0.0 4.511654714215839 6.6057770168040255 6.211732050950841
354 30 2 0.0 4.6719695178324585 6.879872704050212 6.538328988979258
355 30 1 0.0 4.537732149236262 6.723118977866185 6.947585473054042
356 30 1 0.0 4.507968513769727 6.763476766379331 7.430549257988302
357 30 1 0.0 4.15061960625356 7.264529468369676 6.03092040665897
358 30 1 0.0 3.9660461459491336 7.1002319554208855 6.459986741636396
359 30 1 0.0 4.047053006359457 7.245699482809565 6.875996354471727
360 30 1 0.0 3.9543211740645416 7.22346561751351 7.358462688813013
361 31 5 8.861242189860825 4.150787595709264 8.343705860512506 4.835008244367376
362 31 6 -8.861242189860825 4.019658312880306 8.309579611613282 5.260768948815738
363 31 3 0.0 4.074028824938697 8.460269650098349 5.738069109799208
364 31 3 0.0 4.434054788653189 8.684905317712694 5.698441586831522
365 31 1 0.0 3.994096093001564 8.561576608017498 6.283302295025916
366 31 2 0.0 4.190402125760781 8.3311275310719 6.623672690907212
367 31 1 0.0 4.086930329241874 8.531885530973852 7.022511109766254
368 31 1 0.0 4.130139688787454 8.569130879321637 7.50470855679599
369 31 1 0.0 4.739790514020171 8.657867015987485 6.1053641593401755
370 31 1 0.0 4.646845211206106 8.909294586161385 6.521662492824851
371 31 1 0.0 4.749925685372684 8.802687484431894 6.9445055519330126
372 31 1 0.0 4.7568471647756265 8.920819546569646 7.42185679606824
373 32 5 8.861242189860825 4.633129971907883 9.265171551071179 4.803195368625706
374 32 6 -8.861242189860825 4.856975718781205 9.370172897127704 5.175350532589039
375 32 3 0.0 4.880993256663886 9.355786631988831 5.6780385841721035
376 32 3 0.0 4.486846874655888 9.216770051288561 5.761544500908923
377 32 1 0.0 5.057395722320204 9.373641733757578 6.209541108231422
378 32 2 0.0 4.983327368370782 9.7180905699304 6.498268869552607
379 32 1 0.0 5.133062656478187 9.601417142044657 6.91546058361012
380 32 1 0.0 5.189015643242104 9.692640742292813 7.389080854162218
381 32 1 0.0 4.285922165287961 9.410513474649045 6.1880232584255115
382 32 1 0.0 4.4203130836407665 9.252683145579415 6.637676039036206
383 32 1 0.0 4.4315403425990665 9.47892972627223 7.024293866238481
384 32 1 0.0 4.5069124707772295 9.484400179099191 7.510253142000613
385 33 5 8.861242189860825 5.429563817205216 0.613669319723964 5.032515188242838
386 33 6 -8.861242189860825 5.3722954592058345 0.38045305500979476 5.409293871525689
387 33 3 0.0 5.385996528658925 0.37130195566452107 5.912491270198997
388 33 3 0.0 5.5787014172543286 0.7449283475457908 5.9826223153278315
389 33 1 0.0 5.315255266882454 0.23280804210687586 6.45077249541495
390 33 2 0.0 5.630539258375666 0.03535821325265753 6.713649675384379
391 33 1 0.0 5.476350495119236 0.012671663206262673 7.144687280808671
392 33 1 0.0 5.538022311274959 10.279217046136235 7.6142644758396205
393 33 1 0.0 5.8915727021327235 0.7432244565895572 6.384990355058959
394 33 1 0.0 5.7224838715885 0.7605953104842513 6.8500346278341695
395 33 1 0.0 5.902706693451822 0.5881543359879465 7.222285558959804
396 33 1 0.0 5.892032832739674 0.5291020703211923 7.710410747693815
397 34 5 8.861242189860825 5.700094790944309 2.1558490863683764 4.961594077510332
398 34 6 -8.861242189860825 5.8279419467882105 1.9651441818607618 5.344893453026259
399 34 3 0.0 5.781303985617008 1.938806914319102 5.845503413845261
400 34 3 0.0 5.543731916267648 2.28661617310282 5.9106067905551445
401 34 1 0.0 5.801039427588284 1.7727585933738352 6.380265075776707
402 34 2 0.0 6.093496738138585 1.9297097231280016 6.692242488949051
403 34 1 0.0 5.985471394827494 1.7562414333368526 7.102512581932829
404 34 1 0.0 6.0509640193690055 1.724953089275614 7.582617152109423
405 34 1 0.0 5.648812070721276 2.5295026128880886 6.346216388763629
406 34 1 0.0 5.49475226817941 2.3607936660184117 6.785490589357921
407 34 1 0.0 5.686418770950349 2.40604376797585 7.18798691346277
408 34 1 0.0 5.672869397081582 2.334813437524087 7.674412607429473
409 35 5 8.861242189860825 5.712373266628174 2.877530301276498 4.997619889296704
410 35 6 -8.861242189860825 5.4711532299621295 2.9336542476438 5.36949979422103
411 35 3 0.0 5.46214061062718 3.0464559433946063 5.860084785923217
412 35 3 0.0 5.880764703743765 3.0392298317710327 5.939783407384107
413 35 1 0.0 5.300402889217061 3.1926101404508724 6.37623537227
414 35 2 0.0 5.242217142102649 2.903843134841691 6.723687350620068
415 35 1 0.0 5.154584671944803 3.141541795899703 7.105658773978838
416 35 1 0.0 5.075401164492891 3.1651937911762578 7.584134685509327
417 35 1 0.0 5.999347112786383 2.8644031700461 6.403642474514075
418 35 1 0.0 5.9420655549621975 3.139563395594429 6.811275432247248
419 35 1 0.0 5.851507822023394 3.0079941317355807 7.229934884239128
420 35 1 0.0 5.787197811782935 3.1190981252275183 7.704684740976871
421 36 5 8.861242189860825 5.665845027815917 4.526408928355144 4.994644277160815
422 36 6 -8.861242189860825 5.458445237173672 4.535380219299051 5.390291228257227
423 36 3 0.0 5.495550780670229 4.533893823490009 5.892386889684702
424 36 3 0.0 5.909660625580259 4.440457549403679 5.930240784109189
425 36 1 0.0 5.389957293187476 4.583594346711186 6.440393678897206
426 36 2 0.0 5.299136986000224 4.237049635499455 6.721735600566769