Lipid soup setup

4400 atoms
1408 bonds
1024 angles
0 dihedrals
0 impropers

6 atom types
2 bond types
3 angle types
0 dihedral types
0 improper types

0 9.744308340753177 xlo xhi
0 9.744308340753177 ylo yhi
0 15.446475000000003 zlo zhi

Masses

1 1
2 1
3 1
4 1
5 1
6 1

Atoms

1 1 5 8.861242189860825 0.5015535552361126 0.6261764155862763 4.517018085932638
2 1 6 -8.861242189860825 0.6376903832008093 0.44116487301245144 4.900253209998397
3 1 3 0.0 0.592770193262156 0.4131548883767321 5.400929453944074
4 1 3 0.0 0.34096547475839456 0.7507793617709406 5.466154579426289
5 1 1 0.0 0.6200354580861256 0.248342565584869 5.935742571977146
6 1 2 0.0 0.9060480319177474 0.41751794228925454 6.24730531282122
7 1 1 0.0 0.8058298183418796 0.2398980863293938 6.6577803644308435
8 1 1 0.0 0.8731253991889465 0.2116104979803744 7.137821779093926
9 1 1 0.0 0.43632070555801133 0.9980574614146238 5.901530629455087
10 1 1 0.0 0.2899430359129452 0.8232862158968124 6.3410616799968
11 1 1 0.0 0.4800187473875842 0.8766970114320811 6.743312126556173
12 1 1 0.0 0.47001541855823636 0.8052068274788837 7.229785546457161
13 2 5 8.861242189860825 0.5841130808684182 2.004677846441026 4.852181983647522
14 2 6 -8.861242189860825 0.4335684425137418 1.8463907280093113 5.241942380728572
15 2 3 0.0 0.4165561910461887 1.8905002442420873 5.74318485481939
16 2 3 0.0 0.7169055436197525 2.1882384476567647 5.796028463001337
17 2 1 0.0 0.27566260046210683 1.843947522632892 6.283474969362798
18 2 2 0.0 0.4943840150518367 1.587176736290791 6.589619621506613
19 2 1 0.0 0.3184201204878009 1.6640838322350133 7.005797802050411
20 2 1 0.0 0.3164103308003496 1.5969325716740284 7.486687926297483
21 2 1 0.0 0.9899615132601585 2.1321894343859857 6.222748897358573
22 2 1 0.0 0.8112335521131478 2.2554013270124758 6.667759122230429
23 2 1 0.0 0.904871553726482 2.0777792995746736 7.068345256479059
24 2 1 0.0 0.8493358255564988 2.081039797518762 7.556988739306037
25 3 5 8.861242189860825 0.3635903615856346 2.8658288397871896 4.605518542869917
26 3 6 -8.861242189860825 0.5019511148516562 3.0266191619951526 4.998754402592109
27 3 3 0.0 0.5856147705701856 2.944642825299191 5.488406684204981
28 3 3 0.0 0.3944607170183173 2.565785177048167 5.528121019929485
29 3 1 0.0 0.7642465005732835 2.982959063211517 6.018080299347904
30 3 2 0.0 0.513941847329494 3.1316680797951344 6.368405934873441
31 3 1 0.0 0.7489140153128887 3.074945004346617 6.757832236684589
32 3 1 0.0 0.7831955001668853 3.0956654195964686 7.241737275753166
33 3 1 0.0 0.16510896248909596 2.496724219542663 5.9780318337423
34 3 1 0.0 0.41954335652386276 2.394352471825185 6.390272199575509
35 3 1 0.0 0.3216311135802659 2.4977728705603504 6.815130204956989
36 3 1 0.0 0.428392609591016 2.467438032505796 7.294243011954718
37 4 5 8.861242189860825 0.7730763201342286 4.4109451359009935 4.537101019355289
38 4 6 -8.861242189860825 0.9510792823224371 4.400297458606889 4.946775572570395
39 4 3 0.0 0.9200214505392739 4.237319353977332 5.422120323726076
40 4 3 0.0 0.523735733122745 4.080607665416938 5.4150992746689335
41 4 1 0.0 1.0361341975879477 4.096259505564996 5.951791463933777
42 4 2 0.0 0.9197039869657255 4.339653380842527 6.318804092445362
43 4 1 0.0 1.0262317988444936 4.104107951406403 6.697291143116236
44 4 1 0.0 1.0267146938430929 4.050541238482548 7.179887264864884
45 4 1 0.0 0.2709436207538499 4.139469579321213 5.853759515126758
46 4 1 0.0 0.3599719251757469 3.855019847745967 6.249134357573013
47 4 1 0.0 0.32127988977083777 3.95630677750311 6.683911076344974
48 4 1 0.0 0.3424437750192499 3.817148119879584 7.1551374118028965
49 5 5 8.861242189860825 0.4081688286787231 5.249379797432162 4.879410102237597
50 5 6 -8.861242189860825 0.37457359487352293 5.4237113765762475 5.2894241604237
51 5 3 0.0 0.5437676147405086 5.436781963119607 5.763430096424118
52 5 3 0.0 0.7997919257404769 5.096168745705059 5.754242790554212
53 5 1 0.0 0.6532791763344276 5.585941737677623 6.292287494180157
54 5 2 0.0 0.4523755488795127 5.409076547516186 6.660867579018917
55 5 1 0.0 0.6543195648070271 5.574072192444454 7.037799035842614
56 5 1 0.0 0.7097175673677221 5.5885711675670615 7.519970668853683
57 5 1 0.0 0.8135184928089854 4.8366726098909165 6.192722801953774
58 5 1 0.0 1.0673892751070213 4.9977432384678995 6.586124420310978
59 5 1 0.0 0.9834635418071589 4.933461384353244 7.021568131312962
60 5 1 0.0 1.1158236913218302 4.990579629264256 7.491765534727986
61 6 5 8.861242189860825 0.9275189030065022 6.406967092288847 4.792852525686252
62 6 6 -8.861242189860825 0.9097239195151863 6.646953148842609 5.1693119502645875
63 6 3 0.0 0.8460274369062972 6.654536357103789 5.668675882693325
64 6 3 0.0 0.7100798327997735 6.254757649329548 5.726515765453404
65 6 1 0.0 0.8410562821575871 6.803476072363841 6.208790515404702
66 6 2 0.0 0.47413522164626065 6.9477040629892555 6.43696164422807
67 6 1 0.0 0.580154969925181 6.995702902837262 6.880287930281111
68 6 1 0.0 0.4568441320193256 7.092092972365501 7.339931307693621
69 6 1 0.0 0.3635091005974838 6.2064238878807 6.097115223936404
70 6 1 0.0 0.48731393175859555 6.217356616511438 6.576397806602125
71 6 1 0.0 0.24647425472763718 6.358929238295848 6.926741000710742
72 6 1 0.0 0.20014946105032938 6.419677264705547 7.4125712097731
73 7 5 8.861242189860825 0.2668264534692786 8.079612730341895 4.547206238111714
74 7 6 -8.861242189860825 0.11956815677954649 8.207559242934225 4.949171847465341
75 7 3 0.0 0.20750601081050313 8.249243774996348 5.44314392923734
76 7 3 0.0 0.5639617241788648 8.017051000564523 5.469145048412291
77 7 1 0.0 0.185612749449203 8.39514482120156 5.983666951368143
78 7 2 0.0 0.009702161356207994 8.139051181467504 6.3167830792269895
79 7 1 0.0 0.08892740768504676 8.34021505112872 6.7209349435608345
80 7 1 0.0 0.06957376891904676 8.344095968212685 7.206093698812127
81 7 1 0.0 0.6063300665209277 7.752174820223532 5.902546613012688
82 7 1 0.0 0.7328861330909444 7.966320776825302 6.330663449993326
83 7 1 0.0 0.6176767600132442 7.851686860027815 6.748243114733152
84 7 1 0.0 0.6567405268024664 7.92242853722452 7.233358501513583
85 8 5 8.861242189860825 1.0897970848892218 8.740300521762412 4.762244711426419
86 8 6 -8.861242189860825 1.1889218036554394 8.679611190552516 5.19366418518525
87 8 3 0.0 1.0553915405907515 8.739609948699826 5.67537872910273
88 8 3 0.0 0.7224003653631075 9.000271497867994 5.62225008997646
89 8 1 0.0 1.0166035308972605 8.697676843891196 6.232755327692367
90 8 2 0.0 1.1875285607772463 8.997434118165181 6.530118830219977
91 8 1 0.0 1.0547502745262984 8.883628180066692 6.953793713486907
92 8 1 0.0 1.0320488497505265 8.970365219958873 7.431004331423866
93 8 1 0.0 0.6691706155892849 9.345116809059206 5.993787017658449
94 8 1 0.0 0.48614392306641896 9.226941562922075 6.43841584695929
95 8 1 0.0 0.575841640585113 9.409158612355718 6.837838151415552
96 8 1 0.0 0.48869235315667053 9.435132898732931 7.321157548302747
97 9 5 8.861242189860825 1.8807081978304168 1.0871175059768865 4.910008879637571
98 9 6 -8.861242189860825 1.692609495552771 1.0117401883905237 5.308215867680829
99 9 3 0.0 1.7485030144879614 0.9754158632587089 5.807250477602555
100 9 3 0.0 2.1741125224053395 0.9807384962838877 5.829123626384847
101 9 1 0.0 1.655536364044825 0.9504842810671545 6.359217130349835
102 9 2 0.0 1.6602408972635034 0.5691162825832885 6.6082776833379295
103 9 1 0.0 1.6174011687344299 0.6768045708520586 7.051730343479641
104 9 1 0.0 1.6061364825748612 0.5531279875687322 7.521140454407144
105 9 1 0.0 2.365123744298585 0.6889590005615618 6.200836987094135
106 9 1 0.0 2.3542867004571737 0.8274282892660934 6.676092465113388
107 9 1 0.0 2.33014441724902 0.5723349647140474 7.0436947731311665
108 9 1 0.0 2.3291801828920824 0.5343280165694986 7.534023074786634
109 10 5 8.861242189860825 1.9578650195062164 2.1867957422426683 4.931107130750467
110 10 6 -8.861242189860825 1.8744279232307923 2.3582718737298354 5.335168827062867
111 10 3 0.0 1.8261673173981554 2.2814000231662295 5.830386674550782
112 10 3 0.0 1.8283254262337372 1.8552174916412802 5.834129758691629
113 10 1 0.0 1.7889944246647018 2.3509080283715695 6.385110372339535
114 10 2 0.0 1.4019190422178762 2.338336260702485 6.624921633368808
115 10 1 0.0 1.4995369627339221 2.3614362547440146 7.072156922033361
116 10 1 0.0 1.3650567843433283 2.353554863477862 7.53865623386525
117 10 1 0.0 1.526799964630844 1.6506328535234989 6.1905268762365075
118 10 1 0.0 1.654251227599504 1.6401807631672842 6.668863456685616
119 10 1 0.0 1.3908388215513297 1.6504584140682592 7.031210231421346
120 10 1 0.0 1.3414530600974188 1.6307746935387595 7.5201283216688095
121 11 5 8.861242189860825 1.81817575063318 2.706645197254717 4.616355056731398
122 11 6 -8.861242189860825 1.8809025092434288 2.5412588130225675 5.026652954357502
123 11 3 0.0 1.8638228746736383 2.615056548413009 5.5243890935810605
124 11 3 0.0 1.8006739668867506 3.0365308037273495 5.529067324249873
125 11 1 0.0 1.850211164514564 2.5413056272491854 6.0796431711025685
126 11 2 0.0 2.2032928987109193 2.6039494755821444 6.3605415142768615
127 11 1 0.0 2.0621009374551487 2.5590941051804332 6.7942869435096505
128 11 1 0.0 2.142775133791226 2.5772943884281565 7.272752267627411
129 11 1 0.0 2.0296466239893345 3.275022897232709 5.9169905475528
130 11 1 0.0 1.8509614260016494 3.2585980182951855 6.37846728390346
131 11 1 0.0 2.072352724581121 3.278927188446391 6.767516803481335
132 11 1 0.0 2.065196779604385 3.296393001126954 7.2589545300534715
133 12 5 8.861242189860825 1.4034209169150287 4.243942559672919 4.748155488371187
134 12 6 -8.861242189860825 1.3241755506192412 4.330435609794243 5.179282837692579
135 12 3 0.0 1.500173699634888 4.350136853523247 5.650574251250651
136 12 3 0.0 1.8746944474988836 4.155294721062862 5.592085182807656
137 12 1 0.0 1.5681660114948617 4.4588941403593445 6.195991949641723
138 12 2 0.0 1.482766581371181 4.165511455336043 6.533820869981886
139 12 1 0.0 1.6186807858858847 4.348207009440022 6.93160464928823
140 12 1 0.0 1.6915583159290326 4.319725069087325 7.410818888784968
141 12 1 0.0 2.022525570055538 3.869738282826656 5.987553087103834
142 12 1 0.0 2.2080801149575735 4.0687679077058965 6.401214390717666
143 12 1 0.0 2.1851960567908018 3.9168585085861003 6.822149973996626
144 12 1 0.0 2.3090909034152842 3.96084698842422 7.296051210417169
145 13 5 8.861242189860825 1.6368533738534672 5.503172156145379 4.709308956668331
146 13 6 -8.861242189860825 1.8348371507809187 5.350874770970684 5.079767588196907
147 13 3 0.0 1.8118624088740696 5.2775868949273015 5.577341836339165
148 13 3 0.0 1.4625048663004416 5.5057522081345445 5.664175675282299
149 13 1 0.0 1.9035430159771676 5.097941394113453 6.100078603698011
150 13 2 0.0 2.122083058988734 5.3334158100533395 6.423013412898572
151 13 1 0.0 2.095585468057818 5.106692266446227 6.8204760954318555
152 13 1 0.0 2.1779498312529495 5.072265842714135 7.297759633459683
153 13 1 0.0 1.477712732178549 5.742480489723329 6.115307391141839
154 13 1 0.0 1.4073711568830252 5.5010320875014855 6.541820798516486
155 13 1 0.0 1.5763170330216965 5.58966779644307 6.9472685916609
156 13 1 0.0 1.600562025854956 5.488203772890213 7.427877095025617
157 14 5 8.861242189860825 1.4021620305333466 6.844925061268193 4.864407790142826
158 14 6 -8.861242189860825 1.2914850749366633 6.839515056879053 5.297250729884128
159 14 3 0.0 1.4406030663954974 6.873290843377282 5.776940322042097
160 14 3 0.0 1.8625226749836261 6.857132983039381 5.718862910531364
161 14 1 0.0 1.4541123911003235 6.934655497691135 6.333701891277248
162 14 2 0.0 1.4951775908130702 6.594123215527141 6.6334455419720815
163 14 1 0.0 1.5410089825759772 6.767715355215637 7.055165264210569
164 14 1 0.0 1.616025327516678 6.714779819377279 7.531966081832692
165 14 1 0.0 2.1124296591237512 6.612217532906596 6.0894763278642525
166 14 1 0.0 2.1966347305919895 6.819002792049418 6.531413333964821
167 14 1 0.0 2.235730038882301 6.622157968976598 6.932051054890636
168 14 1 0.0 2.3273497972029986 6.656288046858213 7.414034725701738
169 15 5 8.861242189860825 1.8083462610122514 8.374163668223988 4.736298618545127
170 15 6 -8.861242189860825 1.6093373301829543 8.29000481606451 5.127379684546682
171 15 3 0.0 1.6377135119026953 8.289918513950836 5.6300464417705145
172 15 3 0.0 2.054534344668979 8.36655468598978 5.675185214426454
173 15 1 0.0 1.5142140236345751 8.27929465858812 6.176458902943365
174 15 2 0.0 1.5641975066362483 7.917683700493535 6.448918089553158
175 15 1 0.0 1.4757161204140559 8.04018957928733 6.881636965395917
176 15 1 0.0 1.453997507376459 7.941419739108561 7.356549023746371
177 15 1 0.0 2.2655154091167535 8.13042500676092 6.074586201624381
178 15 1 0.0 2.201503958614558 8.290213611466866 6.538837309142284
179 15 1 0.0 2.194962755653558 8.05449212599961 6.91986159299103
180 15 1 0.0 2.1681892105812492 8.042904286126214 7.410795601296445
181 16 5 8.861242189860825 1.6315569129328376 9.349728417768558 4.813603990654984
182 16 6 -8.861242189860825 1.6005141361494064 9.096583683166353 5.180463304949016
183 16 3 0.0 1.5454201804516108 9.073530237161872 5.6803755758804835
184 16 3 0.0 1.5946934585316759 9.486421541835343 5.773880297055031
185 16 1 0.0 1.4483204640227318 8.899609571255315 6.204069011652098
186 16 2 0.0 1.770233555471972 8.804580202694822 6.512023915200846
187 16 1 0.0 1.5726375909615482 8.717331851273364 6.916283524289975
188 16 1 0.0 1.5988930600795488 8.618370650172922 7.39092652030491
189 16 1 0.0 1.831248334351565 9.570565023399 6.2174488360420765
190 16 1 0.0 1.6019389436564568 9.515137148915034 6.652769302928365
191 16 1 0.0 1.7739955584745202 9.396163693022006 7.049037834381134
192 16 1 0.0 1.7143989627268903 9.318617157114273 7.531015097126481
193 17 5 8.861242189860825 3.180550778029809 0.6118072891618579 4.8467364651187825
194 17 6 -8.861242189860825 3.15560134845107 0.44305900609751264 5.259693133618112
195 17 3 0.0 3.079167787923665 0.5242884894572487 5.750650123397444
196 17 3 0.0 3.0856192123510495 0.9504433601655959 5.751439796782687
197 17 1 0.0 2.9737502151774327 0.46004323702197897 6.297176655714081
198 17 2 0.0 3.28805512409867 0.4673930052123332 6.626802575645588
199 17 1 0.0 3.0803621784560544 0.4511017790505585 7.035067817660998
200 17 1 0.0 3.0930460678459033 0.4613088362211242 7.520354926063586
201 17 1 0.0 3.2920423921003814 1.152741757719184 6.1712685865915144
202 17 1 0.0 3.048393739544461 1.1709318829452322 6.601923214190956
203 17 1 0.0 3.2116638005294167 1.1592576044207619 7.01904850632321
204 17 1 0.0 3.1366343330241975 1.1832231595626332 7.504500391098743
205 18 5 8.861242189860825 2.9456621640223033 1.7207824357358263 4.5855001868006
206 18 6 -8.861242189860825 2.8514025601260786 1.8754069982281472 4.993958310576977
207 18 3 0.0 2.927828009354609 1.8448153512509395 5.49064974980299
208 18 3 0.0 3.1474302889978856 1.4797803059031502 5.503858562507377
209 18 1 0.0 2.9484164318496173 1.9527647150712562 6.040062726843197
210 18 2 0.0 2.6652260090578217 1.7788234671943661 6.35157912878885
211 18 1 0.0 2.8065301321580143 1.9007850584633899 6.770196838169946
212 18 1 0.0 2.7703419667644287 1.8833342473127488 7.254092000910299
213 18 1 0.0 3.0528328404772647 1.1971050181271807 5.917304312221992
214 18 1 0.0 3.2413727915098476 1.3087346425479387 6.361320605433378
215 18 1 0.0 3.070454918262901 1.230471243307819 6.768074624311666
216 18 1 0.0 3.115791876801303 1.2477522267263197 7.2574755121960965
217 19 5 8.861242189860825 2.999986491498666 2.6823059352201093 4.852505964506294
218 19 6 -8.861242189860825 2.9553340231178793 2.562768301327863 5.2806981856902855
219 19 3 0.0 3.0265856764376924 2.6767718653520545 5.7658842049076
220 19 3 0.0 3.2764610732100796 3.0189693308573324 5.7199124855656835
221 19 1 0.0 3.0008681524578034 2.6899884444196642 6.325433575944974
222 19 2 0.0 3.3141437004549723 2.5147455629324367 6.605867535140821
223 19 1 0.0 3.2099631275608327 2.625641069439729 7.03822255873301
224 19 1 0.0 3.3107625508901166 2.6299146388816443 7.513185563090814
225 19 1 0.0 3.6310695564664246 3.0656085646157267 6.08305018537112
226 19 1 0.0 3.5218236881439107 3.2256466626695666 6.5386948959150235
227 19 1 0.0 3.7186330342997804 3.1237568016447588 6.928145083250401
228 19 1 0.0 3.7571816202815222 3.1904143668186378 7.413879657666708
229 20 5 8.861242189860825 2.7078167235040542 4.091739540409043 4.725188055018303
230 20 6 -8.861242189860825 2.8635323231152765 3.8888035863787076 5.091523035235928
231 20 3 0.0 2.8481053840554136 3.8402402423915265 5.5924049525847135
232 20 3 0.0 2.6061843086624776 4.178244489638715 5.686625653140553
233 20 1 0.0 2.9045288879958693 3.6525680692683533 6.117311716942475
234 20 2 0.0 3.211339703021448 3.8044331223310346 6.417809589475278
235 20 1 0.0 3.132898119653276 3.6109915280892557 6.825865393469481
236 20 1 0.0 3.228236804851683 3.5614752172149564 7.299391858104691
237 20 1 0.0 2.7313628425546175 4.405524339921719 6.1253346544738605
238 20 1 0.0 2.6086297923950585 4.21433548940447 6.56526916852941
239 20 1 0.0 2.8232070867039316 4.24803528512861 6.957197503132498
240 20 1 0.0 2.841073266366084 4.1561541987851545 7.440007990649203
241 21 5 8.861242189860825 2.9024520540183256 5.968942978434739 4.656914345809222
242 21 6 -8.861242189860825 3.0035817876200106 6.10050811628932 5.071757760382107
243 21 3 0.0 3.0484112316672127 5.981414331897447 5.55887794618907
244 21 3 0.0 2.8643390151622885 5.597058488374215 5.552695474987785
245 21 1 0.0 3.181466128079078 5.980816741517308 6.103145899551008
246 21 2 0.0 2.899262483359808 6.096422540638037 6.441511447548952
247 21 1 0.0 3.1024982936078427 6.013329274210518 6.8438458682299235
248 21 1 0.0 3.0959913205483742 5.996113753367352 7.329057088000843
249 21 1 0.0 2.6003000306692097 5.488093524926297 5.974834592994606
250 21 1 0.0 2.822195958799148 5.358056035703917 6.397931985207038
251 21 1 0.0 2.686783108231575 5.425468513121078 6.819720828965573
252 21 1 0.0 2.754181347384274 5.359117839822581 7.3023411422258455
253 22 5 8.861242189860825 3.2634745136668646 6.84664136768821 4.840536631207644
254 22 6 -8.861242189860825 3.112551748219009 6.997349807569859 5.233144517207841
255 22 3 0.0 3.15530470812366 7.00032429901372 5.734784249261644
256 22 3 0.0 3.4346027043801888 6.681819989695443 5.781665509082821
257 22 1 0.0 3.114668275130688 7.1313891605652495 6.278017394430744
258 22 2 0.0 2.844076988220144 6.921277894022084 6.5782314065535195
259 22 1 0.0 2.929314252487864 7.082887997101939 6.9985872735521095
260 22 1 0.0 2.860210013072391 7.077912363986325 7.479179085610731
261 22 1 0.0 3.360635869973591 6.402906179929784 6.2018171218046945
262 22 1 0.0 3.492128654090143 6.5638890130563485 6.651209077656922
263 22 1 0.0 3.3074814157251122 6.47179643296994 7.048966874546829
264 22 1 0.0 3.3117816713054884 6.515912273896224 7.53876540623185
265 23 5 8.861242189860825 2.86299624709089 7.942238551002846 4.816717800345856
266 23 6 -8.861242189860825 2.686318609255471 7.994305013589652 5.223787527658176
267 23 3 0.0 2.757538194530401 8.106334978780573 5.709437753157514
268 23 3 0.0 3.1836496556586193 8.105215811326302 5.7182688600547324
269 23 1 0.0 2.681961719274493 8.249416390248246 6.2458587386815125
270 23 2 0.0 2.686641161403887 7.959375468639846 6.5970697985430125
271 23 1 0.0 2.6604533636730006 8.195261213727624 6.989185069951628
272 23 1 0.0 2.6617573346536822 8.217126231068384 7.474250903962076
273 23 1 0.0 3.3803597108845262 7.931575465794943 6.155242049300583
274 23 1 0.0 3.387830845748513 8.205335976062413 6.567744558363021
275 23 1 0.0 3.3701920529512837 8.07190453676963 6.995145815879221
276 23 1 0.0 3.3842792141733167 8.181437175804541 7.474386313055998
277 24 5 8.861242189860825 3.389985967923968 9.259471928967939 4.87200616596087
278 24 6 -8.861242189860825 3.5419069348430914 9.220452633934592 5.290371056405793
279 24 3 0.0 3.4421726732257945 9.120829801515539 5.773700604721874
280 24 3 0.0 3.0163286025226226 9.117382545963745 5.756520320505416
281 24 1 0.0 3.4861428212037016 8.993200309944951 6.317491839111011
282 24 2 0.0 3.457189875124444 9.29258192991182 6.659584245478758
283 24 1 0.0 3.4615902897981887 9.06772019200684 7.05895889006015
284 24 1 0.0 3.430807446542492 9.058996056116976 7.543463739016228
285 24 1 0.0 2.7915819361551084 9.300572521385538 6.175712105258613
286 24 1 0.0 2.7615037876561463 9.038025297483326 6.594428256159178
287 24 1 0.0 2.7516660729868447 9.183181499711546 7.018244026576327
288 24 1 0.0 2.7093228351310383 9.086525487136788 7.498589700753296
289 25 5 8.861242189860825 4.208263664662874 0.4478257056049297 4.621208064981178
290 25 6 -8.861242189860825 4.228978830855845 0.3420174669385497 5.054805995847377
291 25 3 0.0 4.089011977620074 0.4457367689004383 5.527173088637279
292 25 3 0.0 3.90934158675714 0.8269047430837031 5.46330021181282
293 25 1 0.0 3.982245900080259 0.4149557757495519 6.0763407340586335
294 25 2 0.0 4.2369134438632665 0.604006015285074 6.403295304343594
295 25 1 0.0 4.027650209735019 0.5522639130713686 6.8077874862929555
296 25 1 0.0 3.9989729029855834 0.6315092718219114 7.285978272320853
297 25 1 0.0 3.975760776592448 1.1533881381391264 5.849031293678963
298 25 1 0.0 3.7175859552885893 1.1193668548341242 6.270157484680983
299 25 1 0.0 3.8385681813032404 1.2365506142845346 6.685390164559535
300 25 1 0.0 3.7251785502737884 1.2893342776895107 7.161020249512166
301 26 5 8.861242189860825 3.8402401358629517 1.6480511675776246 4.729272336420069
302 26 6 -8.861242189860825 3.6988402157950673 1.6438259794063375 5.153088189735215
303 26 3 0.0 3.7949451437863373 1.7456162709762517 5.636701323668604
304 26 3 0.0 4.211296192764775 1.8318167489149104 5.607180146399613
305 26 1 0.0 3.7469175128222405 1.8452068200376324 6.1859796109072835
306 26 2 0.0 3.845151914216387 1.5464703975725478 6.515526867352588
307 26 1 0.0 3.8120474083111358 1.7535920377209642 6.923064582697391
308 26 1 0.0 3.8580322690241746 1.7528826919515275 7.406441797780667
309 26 1 0.0 4.482011554570475 1.6824340536827096 6.012383042231431
310 26 1 0.0 4.476179775641071 1.9325666700184694 6.439651832830995
311 26 1 0.0 4.528991568264221 1.7788125909622283 6.857213215938931
312 26 1 0.0 4.569274373233525 1.8666982031025061 7.339417235065717
313 27 5 8.861242189860825 3.999099578952631 3.4483793874966184 4.677656585893741
314 27 6 -8.861242189860825 4.217962128565682 3.446499287721178 5.067178493792698
315 27 3 0.0 4.236110352739064 3.293345496945655 5.5464421396969215
316 27 3 0.0 3.8417556814761555 3.1358865236575633 5.583065674122603
317 27 1 0.0 4.4061169048920235 3.163465818887589 6.064284402439953
318 27 2 0.0 4.326792154572695 3.4142171339849794 6.436206711422402
319 27 1 0.0 4.472207432088027 3.186727550802744 6.806591859837096
320 27 1 0.0 4.5220654450371205 3.1431622629982714 7.287616689644418
321 27 1 0.0 3.6347650014068957 3.203409904496155 6.043920135908003
322 27 1 0.0 3.764674187045989 2.9273480412430417 6.433884757334966
323 27 1 0.0 3.7701145450168965 3.037550376423283 6.868180461614305
324 27 1 0.0 3.839704301968606 2.9082094288247173 7.337536921313326
325 28 5 8.861242189860825 4.746308074493931 4.029323905233827 4.540266338992335
326 28 6 -8.861242189860825 4.736070498604764 3.861154019111221 4.9540848361296135
327 28 3 0.0 4.571830654955528 3.9024339793735403 5.428215959969617
328 28 3 0.0 4.412233420954883 4.297268426836482 5.411342896062222
329 28 1 0.0 4.430468723955832 3.79805866874685 5.960244311306129
330 28 2 0.0 4.672199781682356 3.925077821816063 6.324835962937275
331 28 1 0.0 4.436615152126078 3.825949944423492 6.705303856192326
332 28 1 0.0 4.381998900630374 3.8366813082775764 7.187663209320542
333 28 1 0.0 4.468281567946739 4.560967630589738 5.843908172872088
334 28 1 0.0 4.183628859209208 4.479378956551351 6.240739470148289
335 28 1 0.0 4.283678999611009 4.529265646945556 6.674661350740417
336 28 1 0.0 4.143649783653331 4.518417192763526 7.145980171688223
337 29 5 8.861242189860825 4.3898186841823845 5.5602648164852155 4.554674228420919
338 29 6 -8.861242189860825 4.474217659695879 5.776059128289188 4.936696865259177
339 29 3 0.0 4.49382744810827 5.762918205190059 5.439610233836205
340 29 3 0.0 4.302316713830128 5.3879793240276195 5.50590270956725
341 29 1 0.0 4.601341526702242 5.876802494447805 5.977571811641325
342 29 2 0.0 4.30613779242434 6.064692530769465 6.269199882091613
343 29 1 0.0 4.48864387228637 6.067039903465693 6.68963809659201
344 29 1 0.0 4.459184429394661 6.153562090323826 7.166518265034438
345 29 1 0.0 4.016696979969977 5.3740996003413795 5.927826997139047
346 29 1 0.0 4.215898695461836 5.334807227886941 6.379417232676609
347 29 1 0.0 4.0624096136092325 5.491848267138747 6.770014371263509
348 29 1 0.0 4.1058616000138475 5.529047701916411 7.258476681159787
349 30 5 8.861242189860825 4.323543734781142 6.3572549558878695 4.546437937612692
350 30 6 -8.861242189860825 4.419717356921458 6.258168561558619 4.9713663880543795
351 30 3 0.0 4.279787469902396 6.268838847669825 5.454879423729848
352 30 3 0.0 3.9409479754199537 6.525337863748686 5.422533326297468
353 30 1 0.0 4.236335942335423 6.173133232420516 6.0052283744802555
354 30 2 0.0 4.3966507459520425 6.447228919666702 6.3318253125086725
355 30 1 0.0 4.262413377355846 6.290475193482675 6.741081796583456
356 30 1 0.0 4.232649741889311 6.330832981995822 7.224045581517716
357 30 1 0.0 3.875300834373144 6.831885683986166 5.824416730188384
358 30 1 0.0 3.6907273740687176 6.667588171037376 6.25348306516581
359 30 1 0.0 3.771734234479041 6.813055698426055 6.669492678001141
360 30 1 0.0 3.6790024021841257 6.79082183313 7.151959012342427
361 31 5 8.861242189860825 3.8754688238288484 7.832399569877447 4.62850456789679
362 31 6 -8.861242189860825 3.74433954099989 7.798273320978224 5.054265272345152
363 31 3 0.0 3.798710053058281 7.948963359463289 5.531565433328622
364 31 3 0.0 4.158736016772773 8.173599027077636 5.491937910360936
365 31 1 0.0 3.718777321121148 8.05027031738244 6.07679861855533
366 31 2 0.0 3.9150833538803647 7.819821240436842 6.4171690144366265
367 31 1 0.0 3.811611557361458 8.020579240338794 6.816007433295668
368 31 1 0.0 3.8548209169070384 8.057824588686579 7.298204880325404
369 31 1 0.0 4.464471742139755 8.146560725352426 5.89886048286959
370 31 1 0.0 4.37152643932569 8.397988295526327 6.315158816354265
371 31 1 0.0 4.474606913492268 8.291381193796836 6.738001875462427
372 31 1 0.0 4.4815283928952105 8.409513255934588 7.215353119597654
373 32 5 8.861242189860825 4.357811200027467 8.675202754184573 4.59669169215512
374 32 6 -8.861242189860825 4.581656946900789 8.780204100241098 4.968846856118454
375 32 3 0.0 4.60567448478347 8.765817835102226 5.471534907701518
376 32 3 0.0 4.211528102775472 8.626801254401956 5.555040824438337
377 32 1 0.0 4.782076950439788 8.783672936870973 6.003037431760836
378 32 2 0.0 4.708008596490366 9.128121773043794 6.291765193082021
379 32 1 0.0 4.857743884597771 9.011448345158051 6.708956907139534
380 32 1 0.0 4.913696871361688 9.102671945406207 7.182577177691632
381 32 1 0.0 4.010603393407545 8.82054467776244 5.981519581954926
382 32 1 0.0 4.1449943117603505 8.662714348692809 6.43117236256562
383 32 1 0.0 4.1562215707186505 8.888960929385625 6.817790189767895
384 32 1 0.0 4.2315936988968135 8.894431382212586 7.303749465530027
385 33 5 8.861242189860825 5.075582539073253 0.5743380665981903 4.826011511772252
386 33 6 -8.861242189860825 5.018314181073872 0.3411218018840211 5.202790195055103
387 33 3 0.0 5.032015250526962 0.3319707025387474 5.705987593728411
388 33 3 0.0 5.224720139122366 0.7055970944200172 5.776118638857246
389 33 1 0.0 4.9612739887504915 0.19347678898110218 6.244268818944364
390 33 2 0.0 5.2765579802437035 9.74033530088006 6.507145998913793
391 33 1 0.0 5.122369216987273 9.717648750833666 6.938183604338085
392 33 1 0.0 5.1840410331429965 9.610585742998081 7.407760799369035
393 33 1 0.0 5.537591424000761 0.7038932034637835 6.178486678588373
394 33 1 0.0 5.368502593456537 0.7212640573584777 6.643530951363584
395 33 1 0.0 5.5487254153198595 0.5488230828621729 7.015781882489218
396 33 1 0.0 5.538051554607711 0.4897708171954186 7.503907071223229
397 34 5 8.861242189860825 5.346113512812346 2.0378553269910555 4.755090401039746
398 34 6 -8.861242189860825 5.473960668656248 1.8471504224834407 5.138389776555673
399 34 3 0.0 5.427322707485045 1.820813154941781 5.638999737374675
400 34 3 0.0 5.189750638135685 2.1686224137254992 5.704103114084559
401 34 1 0.0 5.447058149456321 1.6547648339965142 6.173761399306121
402 34 2 0.0 5.739515460006622 1.8117159637506806 6.485738812478465
403 34 1 0.0 5.631490116695531 1.6382476739595315 6.896008905462243
404 34 1 0.0 5.696982741237043 1.606959329898293 7.376113475638837
405 34 1 0.0 5.294830792589313 2.411508853510768 6.1397127122930435
406 34 1 0.0 5.140770990047447 2.2427999066410904 6.578986912887335
407 34 1 0.0 5.332437492818386 2.2880500085985287 6.981483236992184
408 34 1 0.0 5.318888118949619 2.216819678146766 7.467908930958887
409 35 5 8.861242189860825 5.358391988496211 2.68087403564763 4.791116212826118
410 35 6 -8.861242189860825 5.117171951830167 2.7369979820149317 5.162996117750444
411 35 3 0.0 5.108159332495217 2.849799677765738 5.653581109452631
412 35 3 0.0 5.526783425611802 2.8425735661421645 5.733279730913521
413 35 1 0.0 4.946421611085098 2.9959538748220043 6.169731695799414
414 35 2 0.0 4.888235863970686 2.7071868692128227 6.517183674149482
415 35 1 0.0 4.80060339381284 2.944885530270835 6.8991550975082525
416 35 1 0.0 4.721419886360928 2.9685375255473896 7.377631009038741
417 35 1 0.0 5.64536583465442 2.667746904417232 6.197138798043489
418 35 1 0.0 5.588084276830235 2.942907129965561 6.604771755776662
419 35 1 0.0 5.497526543891431 2.8113378661067125 7.023431207768542
420 35 1 0.0 5.433216533650972 2.92244185959865 7.498181064506285
421 36 5 8.861242189860825 5.311863749683954 4.251090156474728 4.788140600690229
422 36 6 -8.861242189860825 5.104463959041709 4.260061447418635 5.183787551786641
423 36 3 0.0 5.141569502538266 4.258575051609593 5.685883213214116
424 36 3 0.0 5.555679347448296 4.165138777523263 5.723737107638603
425 36 1 0.0 5.035976015055513 4.30827557483077 6.23389000242662