Lipid soup setup

4400 atoms
1408 bonds
1024 angles
0 dihedrals
0 impropers

6 atom types
2 bond types
3 angle types
0 dihedral types
0 improper types

0 8.715574337456916 xlo xhi
0 8.715574337456916 ylo yhi
0 19.30809375 zlo zhi

Masses

1 1
2 1
3 1
4 1
5 1
6 1

Atoms

1 1 5 8.861242189860825 0.4372576800300963 0.56188054038026 6.447827460932637
2 1 6 -8.861242189860825 0.573394507994793 0.3768689978064351 6.831062584998396
3 1 3 0.0 0.5284743180561396 0.34885901317071577 7.331738828944073
4 1 3 0.0 0.27666959955237824 0.6864834865649243 7.396963954426288
5 1 1 0.0 0.5557395828801093 0.18404669037885268 7.866551946977145
6 1 2 0.0 0.8417521567117311 0.3532220670832382 8.17811468782122
7 1 1 0.0 0.7415339431358633 0.17560221112337748 8.588589739430843
8 1 1 0.0 0.8088295239829302 0.14731462277435808 9.068631154093925
9 1 1 0.0 0.372024830351995 0.9337615862086075 7.832340004455086
10 1 1 0.0 0.22564716070692886 0.7589903406907961 8.271871054996799
11 1 1 0.0 0.4157228721815679 0.8124011362260648 8.674121501556172
12 1 1 0.0 0.40571954335222005 0.7409109522728674 9.16059492145716
13 2 5 8.861242189860825 0.5198172056624019 1.8117902208229775 6.7829913586475215
14 2 6 -8.861242189860825 0.3692725673077255 1.6535031023912625 7.172751755728571
15 2 3 0.0 0.35226031584017237 1.6976126186240386 7.673994229819389
16 2 3 0.0 0.6526096684137361 1.995350822038716 7.726837838001336
17 2 1 0.0 0.21136672525609052 1.6510598970148433 8.214284344362797
18 2 2 0.0 0.4300881398458204 1.3942891106727422 8.520428996506613
19 2 1 0.0 0.25412424528178457 1.4711962066169646 8.93660717705041
20 2 1 0.0 0.25211445559433326 1.4040449460559796 9.417497301297482
21 2 1 0.0 0.9256656380541421 1.939301808767937 8.153558272358573
22 2 1 0.0 0.7469376769071315 2.062513701394427 8.598568497230428
23 2 1 0.0 0.8405756785204657 1.884891673956625 8.999154631479058
24 2 1 0.0 0.7850399503504825 1.888152171900713 9.487798114306036
25 3 5 8.861242189860825 0.2992944863796183 2.544349463757108 6.536327917869915
26 3 6 -8.861242189860825 0.43765523964563996 2.7051397859650708 6.929563777592108
27 3 3 0.0 0.5213188953641693 2.6231634492691094 7.419216059204979
28 3 3 0.0 0.330164841812301 2.2443058010180854 7.458930394929483
29 3 1 0.0 0.6999506253672672 2.6614796871814352 7.948889674347902
30 3 2 0.0 0.4496459721234777 2.8101887037650526 8.29921530987344
31 3 1 0.0 0.6846181401068724 2.753465628316535 8.688641611684588
32 3 1 0.0 0.718899624960869 2.7741860435663868 9.172546650753164
33 3 1 0.0 0.10081308728307964 2.1752448435125813 7.908841208742298
34 3 1 0.0 0.35524748131784645 2.0728730957951034 8.321081574575507
35 3 1 0.0 0.2573352383742496 2.1762934945302685 8.745939579956987
36 3 1 0.0 0.3640967343849997 2.145958656475714 9.225052386954717
37 4 5 8.861242189860825 0.7087804449282122 3.96087400945888 6.467910394355288
38 4 6 -8.861242189860825 0.8867834071164208 3.9502263321647746 6.877584947570394
39 4 3 0.0 0.8557255753332575 3.787248227535218 7.352929698726075
40 4 3 0.0 0.4594398579167287 3.630536538974824 7.3459086496689325
41 4 1 0.0 0.9718383223819314 3.6461883791228824 7.882600838933776
42 4 2 0.0 0.8554081117597092 3.8895822544004126 8.24961346744536
43 4 1 0.0 0.9619359236384772 3.65403682496429 8.628100518116234
44 4 1 0.0 0.9624188186370765 3.6004701120404348 9.110696639864882
45 4 1 0.0 0.2066477455478336 3.6893984528790997 7.784568890126757
46 4 1 0.0 0.29567604996973057 3.404948721303853 8.179943732573012
47 4 1 0.0 0.25698401456482145 3.506235651060996 8.614720451344972
48 4 1 0.0 0.27814789981323357 3.36707699343747 9.085946786802896
49 5 5 8.861242189860825 0.3438729534727068 4.670716920578015 6.810219477237597
50 5 6 -8.861242189860825 0.3102777196675066 4.8450484997221 7.2202335354237
51 5 3 0.0 0.4794717395344923 4.85811908626546 7.694239471424117
52 5 3 0.0 0.7354960505344605 4.517505868850912 7.685052165554212
53 5 1 0.0 0.5889833011284112 5.007278860823476 8.223096869180157
54 5 2 0.0 0.3880796736734964 4.830413670662038 8.591676954018917
55 5 1 0.0 0.5900236896010108 4.995409315590306 8.968608410842615
56 5 1 0.0 0.6454216921617058 5.009908290712914 9.450780043853683
57 5 1 0.0 0.749222617602969 4.258009733036769 8.123532176953775
58 5 1 0.0 1.003093399901005 4.419080361613752 8.516933795310978
59 5 1 0.0 0.9191676666011426 4.354798507499097 8.952377506312962
60 5 1 0.0 1.0515278161158141 4.411916752410109 9.422574909727986
61 6 5 8.861242189860825 0.8632230278004859 5.6997124650226665 6.723661900686251
62 6 6 -8.861242189860825 0.84542804430917 5.939698521576429 7.1001213252645865
63 6 3 0.0 0.7817315617002809 5.947281729837609 7.599485257693324
64 6 3 0.0 0.6457839575937572 5.547503022063368 7.657325140453403
65 6 1 0.0 0.7767604069515708 6.096221445097661 8.139599890404702
66 6 2 0.0 0.40983934644024433 6.240449435723075 8.36777101922807
67 6 1 0.0 0.5158590947191647 6.288448275571082 8.81109730528111
68 6 1 0.0 0.3925482568133093 6.384838345099321 9.27074068269362
69 6 1 0.0 0.2992132253914675 5.499169260614519 8.027924598936403
70 6 1 0.0 0.42301805655257924 5.510101989245258 8.507207181602125
71 6 1 0.0 0.18217837952162086 5.651674611029668 8.85755037571074
72 6 1 0.0 0.13585358584431306 5.712422637439367 9.343380584773099
73 7 5 8.861242189860825 0.2025305782632623 7.243766352663683 6.478015613111713
74 7 6 -8.861242189860825 0.055272281573530174 7.371712865256015 6.879981222465339
75 7 3 0.0 0.1432101356044868 7.413397397318136 7.373953304237338
76 7 3 0.0 0.49966584897284844 7.1812046228863124 7.399954423412289
77 7 1 0.0 0.12131687424318668 7.559298443523349 7.914476326368141
78 7 2 0.0 8.660980623607108 7.303204803789292 8.247592454226988
79 7 1 0.0 0.024631532479030438 7.504368673450508 8.651744318560832
80 7 1 0.0 0.005277893713030446 7.508249590534473 9.136903073812126
81 7 1 0.0 0.5420341913149114 6.91632844254532 7.833355988012686
82 7 1 0.0 0.6685902578849281 7.130474399147092 8.261472824993323
83 7 1 0.0 0.5533808848072279 7.015840482349604 8.67905248973315
84 7 1 0.0 0.5924446515964501 7.0865821595463085 9.16416787651358
85 8 5 8.861242189860825 1.0255012096832052 7.775862393672167 6.693054086426417
86 8 6 -8.861242189860825 1.124625928449423 7.71517306246227 7.1244735601852485
87 8 3 0.0 0.9910956653847353 7.775171820609581 7.606188104102728
88 8 3 0.0 0.6581044901570912 8.035833369777748 7.553059464976458
89 8 1 0.0 0.9523076556912442 7.733238715800951 8.163564702692364
90 8 2 0.0 1.1232326855712298 8.032995990074935 8.460928205219975
91 8 1 0.0 0.9904543993202821 7.919190051976447 8.884603088486905
92 8 1 0.0 0.9677529745445101 8.005927091868628 9.361813706423865
93 8 1 0.0 0.6048747403832686 8.38067868096896 7.924596392658447
94 8 1 0.0 0.42184804786040264 8.26250343483183 8.369225221959288
95 8 1 0.0 0.5115457653790967 8.444720484265472 8.768647526415549
96 8 1 0.0 0.4243964779506542 8.470694770642686 9.251966923302744
97 9 5 8.861242189860825 1.687820572212368 1.0228216307708702 6.84081825463757
98 9 6 -8.861242189860825 1.4997218699347223 0.9474443131845074 7.239025242680828
99 9 3 0.0 1.5556153888699127 0.9111199880526926 7.738059852602554
100 9 3 0.0 1.9812248967872907 0.9164426210778713 7.759933001384846
101 9 1 0.0 1.4626487384267763 0.8861884058611382 8.290026505349834
102 9 2 0.0 1.4673532716454547 0.5048204073772722 8.539087058337929
103 9 1 0.0 1.4245135431163811 0.6125086956460423 8.98253971847964
104 9 1 0.0 1.4132488569568125 0.48883211236271584 9.451949829407143
105 9 1 0.0 2.1722361186805363 0.6246631253555455 8.131646362094134
106 9 1 0.0 2.161399074839125 0.763132414060077 8.606901840113387
107 9 1 0.0 2.1372567916309713 0.5080390895080311 8.974504148131166
108 9 1 0.0 2.1362925572740337 0.4700321413634822 9.464832449786634
109 10 5 8.861242189860825 1.7649773938881677 1.9939081166246198 6.861916505750465
110 10 6 -8.861242189860825 1.6815402976127436 2.1653842481117866 7.2659782020628665
111 10 3 0.0 1.6332796917801067 2.0885123975481807 7.7611960495507795
112 10 3 0.0 1.6354378006156884 1.6623298660232317 7.764939133691628
113 10 1 0.0 1.596106799046653 2.158020402753521 8.315919747339533
114 10 2 0.0 1.2090314165998275 2.1454486350844366 8.555731008368806
115 10 1 0.0 1.3066493371158734 2.1685486291259664 9.00296629703336
116 10 1 0.0 1.1721691587252796 2.1606672378598133 9.469465608865248
117 10 1 0.0 1.3339123390127954 1.4577452279054504 8.121336251236505
118 10 1 0.0 1.4613636019814553 1.4472931375492357 8.599672831685615
119 10 1 0.0 1.197951195933281 1.4575707884502107 8.962019606421345
120 10 1 0.0 1.14856543447937 1.437887067920711 9.450937696668808
121 11 5 8.861242189860825 1.6252881250151312 2.385165821224635 6.547164431731398
122 11 6 -8.861242189860825 1.68801488362538 2.2197794369924857 6.957462329357502
123 11 3 0.0 1.6709352490555895 2.293577172382927 7.455198468581061
124 11 3 0.0 1.607786341268702 2.7150514276972677 7.459876699249873
125 11 1 0.0 1.6573235388965153 2.2198262512191036 8.010452546102568
126 11 2 0.0 2.0104052730928705 2.2824700995520626 8.291350889276861
127 11 1 0.0 1.8692133118370997 2.2376147291503514 8.725096318509651
128 11 1 0.0 1.9498875081731772 2.2558150123980747 9.20356164262741
129 11 1 0.0 1.836758998371286 2.953543521202627 7.8477999225528
130 11 1 0.0 1.6580738003836006 2.9371186422651037 8.30927665890346
131 11 1 0.0 1.8794650989630721 2.957447812416309 8.698326178481334
132 11 1 0.0 1.8723091539863363 2.9749136250968724 9.189763905053471
133 12 5 8.861242189860825 1.21053329129698 3.7938714332308052 6.678964863371185
134 12 6 -8.861242189860825 1.1312879250011925 3.880364483352129 7.110092212692578
135 12 3 0.0 1.3072860740168393 3.900065727081133 7.58138362625065
136 12 3 0.0 1.6818068218808349 3.705223594620749 7.522894557807655
137 12 1 0.0 1.375278385876813 4.0088230139172305 8.126801324641722
138 12 2 0.0 1.2898789557531323 3.7154403288939286 8.464630244981883
139 12 1 0.0 1.425793160267836 3.898135882997907 8.862414024288228
140 12 1 0.0 1.4986706903109839 3.8696539426452112 9.341628263784967
141 12 1 0.0 1.829637944437489 3.419667156384542 7.918362462103832
142 12 1 0.0 2.0151924893395248 3.618696781263783 8.332023765717665
143 12 1 0.0 1.992308431172753 3.4667873821439863 8.752959348996624
144 12 1 0.0 2.1162032777972355 3.510775861982106 9.226860585417167
145 13 5 8.861242189860825 1.4439657482354185 4.9245092792912315 6.64011833166833
146 13 6 -8.861242189860825 1.64194952516287 4.772211894116537 7.010576963196906
147 13 3 0.0 1.6189747832560208 4.698924018073154 7.508151211339164
148 13 3 0.0 1.269617240682393 4.927089331280397 7.594985050282298
149 13 1 0.0 1.7106553903591188 4.5192785172593055 8.03088797869801
150 13 2 0.0 1.929195433370685 4.7547529331991925 8.35382278789857
151 13 1 0.0 1.9026978424397694 4.52802938959208 8.751285470431855
152 13 1 0.0 1.9850622056349008 4.493602965859988 9.228569008459683
153 13 1 0.0 1.2848251065605003 5.163817612869182 8.046116766141838
154 13 1 0.0 1.2144835312649764 4.9223692106473385 8.472630173516485
155 13 1 0.0 1.3834294074036477 5.011004919588923 8.8780779666609
156 13 1 0.0 1.4076744002369073 4.909540896036066 9.358686470025615
157 14 5 8.861242189860825 1.209274404915298 6.137670434002013 6.795217165142826
158 14 6 -8.861242189860825 1.0985974493186146 6.132260429612873 7.228060104884128
159 14 3 0.0 1.2477154407774487 6.1660362161111015 7.707749697042097
160 14 3 0.0 1.6696350493655774 6.1498783557732 7.649672285531365
161 14 1 0.0 1.2612247654822748 6.227400870424955 8.264511266277248
162 14 2 0.0 1.3022899651950215 5.886868588260961 8.56425491697208
163 14 1 0.0 1.3481213569579285 6.060460727949457 8.985974639210568
164 14 1 0.0 1.4231377018986293 6.007525192111099 9.462775456832691
165 14 1 0.0 1.9195420335057025 5.904962905640416 8.020285702864253
166 14 1 0.0 2.003747104973941 6.111748164783238 8.46222270896482
167 14 1 0.0 2.0428424132642524 5.914903341710418 8.862860429890636
168 14 1 0.0 2.13446217158495 5.949033419592033 9.344844100701739
169 15 5 8.861242189860825 1.6154586353942026 7.538317290545775 6.667107993545125
170 15 6 -8.861242189860825 1.4164497045649056 7.454158438386299 7.058189059546681
171 15 3 0.0 1.4448258862846466 7.454072136272624 7.560855816770513
172 15 3 0.0 1.8616467190509305 7.530708308311569 7.6059945894264525
173 15 1 0.0 1.3213263980165264 7.443448280909907 8.107268277943362
174 15 2 0.0 1.3713098810181996 7.081837322815324 8.379727464553156
175 15 1 0.0 1.2828284947960071 7.204343201609119 8.812446340395915
176 15 1 0.0 1.2611098817584103 7.105573361430349 9.28735839874637
177 15 1 0.0 2.072627783498705 7.294578629082708 8.005395576624379
178 15 1 0.0 2.0086163329965094 7.454367233788655 8.469646684142283
179 15 1 0.0 2.002075130035509 7.218645748321398 8.850670967991027
180 15 1 0.0 1.9753015849632005 7.207057908448003 9.341604976296443
181 16 5 8.861242189860825 1.4386692873147888 8.385290289678313 6.744413365654985
182 16 6 -8.861242189860825 1.4076265105313577 8.132145555076107 7.111272679949016
183 16 3 0.0 1.352532554833562 8.109092109071627 7.611184950880483
184 16 3 0.0 1.4018058329136271 8.521983413745097 7.70468967205503
185 16 1 0.0 1.2554328384046831 7.9351714431650695 8.134878386652098
186 16 2 0.0 1.5773459298539232 7.840142074604578 8.442833290200845
187 16 1 0.0 1.3797499653434995 7.752893723183119 8.847092899289976
188 16 1 0.0 1.4060054344615 7.653932522082676 9.32173589530491
189 16 1 0.0 1.6383607087335164 8.606126895308755 8.148258211042076
190 16 1 0.0 1.409051318038408 8.550699020824789 8.583578677928365
191 16 1 0.0 1.5811079328564714 8.43172556493176 8.979847209381134
192 16 1 0.0 1.5215113371088416 8.354179029024028 9.46182447212648
193 17 5 8.861242189860825 2.859071401999727 0.5475114139558416 6.7775458401187825
194 17 6 -8.861242189860825 2.8341219724209883 0.3787631308914963 7.190502508618112
195 17 3 0.0 2.757688411893583 0.4599926142512324 7.681459498397444
196 17 3 0.0 2.7641398363209677 0.8861474849595796 7.682249171782687
197 17 1 0.0 2.652270839147351 0.39574736181596265 8.22798603071408
198 17 2 0.0 2.966575748068588 0.40309713000631686 8.557611950645587
199 17 1 0.0 2.7588828024259726 0.38680590384454216 8.965877192660999
200 17 1 0.0 2.7715666918158215 0.39701296101510786 9.451164301063585
201 17 1 0.0 2.9705630160702996 1.0884458825131678 8.102077961591515
202 17 1 0.0 2.7269143635143793 1.1066360077392159 8.532732589190955
203 17 1 0.0 2.890184424499335 1.0949617292147455 8.94985788132321
204 17 1 0.0 2.8151549569941157 1.118927284356617 9.435309766098744
205 18 5 8.861242189860825 2.6241827879922215 1.5278948101177776 6.516309561800597
206 18 6 -8.861242189860825 2.529923184095997 1.6825193726100984 6.924767685576975
207 18 3 0.0 2.606348633324527 1.6519277256328908 7.421459124802988
208 18 3 0.0 2.8259509129678038 1.2868926802851015 7.434667937507375
209 18 1 0.0 2.6269370558195355 1.7598770894532074 7.970872101843195
210 18 2 0.0 2.34374663302774 1.5859358415763174 8.282388503788848
211 18 1 0.0 2.4850507561279325 1.7078974328453411 8.701006213169945
212 18 1 0.0 2.448862590734347 1.6904466216947 9.184901375910298
213 18 1 0.0 2.731353464447183 1.004217392509132 7.84811368722199
214 18 1 0.0 2.9198934154797658 1.11584701692989 8.292129980433376
215 18 1 0.0 2.7489755422328193 1.0375836176897704 8.698883999311665
216 18 1 0.0 2.794312500771221 1.054864601108271 9.188284887196096
217 19 5 8.861242189860825 2.678507115468584 2.3608265591900275 6.783315339506292
218 19 6 -8.861242189860825 2.6338546470877975 2.241288925297781 7.211507560690283
219 19 3 0.0 2.7051063004076106 2.3552924893219727 7.696693579907598
220 19 3 0.0 2.954981697179998 2.6974899548272506 7.650721860565682
221 19 1 0.0 2.6793887764277216 2.3685090683895824 8.256242950944971
222 19 2 0.0 2.9926643244248905 2.193266186902355 8.53667691014082
223 19 1 0.0 2.888483751530751 2.304161693409647 8.969031933733008
224 19 1 0.0 2.989283174860035 2.3084352628515625 9.443994938090812
225 19 1 0.0 3.309590180436343 2.744129188585645 8.013859560371118
226 19 1 0.0 3.200344312113829 2.9041672866394848 8.46950427091502
227 19 1 0.0 3.3971536582696986 2.802277425614677 8.8589544582504
228 19 1 0.0 3.4357022442514404 2.868934990788556 9.344689032666706
229 20 5 8.861242189860825 2.3863373474739724 3.6416684139669293 6.655997430018302
230 20 6 -8.861242189860825 2.5420529470851947 3.4387324599365936 7.0223324102359275
231 20 3 0.0 2.5266260080253318 3.3901691159494125 7.5232143275847125
232 20 3 0.0 2.284704932632396 3.7281733631966003 7.617435028140552
233 20 1 0.0 2.5830495119657875 3.2024969428262393 8.048121091942473
234 20 2 0.0 2.889860326991366 3.3543619958889206 8.348618964475277
235 20 1 0.0 2.8114187436231943 3.1609204016471417 8.75667476846948
236 20 1 0.0 2.906757428821601 3.1114040907728424 9.23020123310469
237 20 1 0.0 2.4098834665245357 3.9554532134796054 8.05614402947386
238 20 1 0.0 2.2871504163649767 3.7642643629623564 8.496078543529409
239 20 1 0.0 2.50172771067385 3.7979641586864963 8.888006878132497
240 20 1 0.0 2.5195938903360022 3.706083072343041 9.370817365649202
241 21 5 8.861242189860825 2.580972677988244 5.390280101580592 6.587723720809221
242 21 6 -8.861242189860825 2.682102411589929 5.521845239435173 7.002567135382106
243 21 3 0.0 2.726931855637131 5.4027514550433 7.489687321189069
244 21 3 0.0 2.5428596391322067 5.018395611520068 7.483504849987784
245 21 1 0.0 2.859986752048996 5.402153864663161 8.033955274551007
246 21 2 0.0 2.577783107329726 5.51775966378389 8.372320822548952
247 21 1 0.0 2.781018917577761 5.434666397356371 8.774655243229923
248 21 1 0.0 2.7745119445182924 5.417450876513205 9.259866463000842
249 21 1 0.0 2.278820654639128 4.90943064807215 7.905643967994605
250 21 1 0.0 2.500716582769066 4.77939315884977 8.328741360207037
251 21 1 0.0 2.365303732201493 4.8468056362669305 8.750530203965571
252 21 1 0.0 2.432701971354192 4.780454962968434 9.233150517225845
253 22 5 8.861242189860825 2.9419951376367828 6.139386740422029 6.771346006207643
254 22 6 -8.861242189860825 2.791072372188927 6.290095180303678 7.16395389220784
255 22 3 0.0 2.833825332093578 6.293069671747539 7.665593624261643
256 22 3 0.0 3.113123328350107 5.974565362429262 7.71247488408282
257 22 1 0.0 2.793188899100606 6.4241345332990685 8.208826769430743
258 22 2 0.0 2.5225976121900624 6.214023266755903 8.50904078155352
259 22 1 0.0 2.6078348764577823 6.375633369835758 8.929396648552109
260 22 1 0.0 2.5387306370423093 6.370657736720144 9.40998846061073
261 22 1 0.0 3.0391564939435094 5.695651552663603 8.132626496804694
262 22 1 0.0 3.1706492780600612 5.8566343857901675 8.582018452656921
263 22 1 0.0 2.9860020396950304 5.764541805703759 8.979776249546827
264 22 1 0.0 2.9903022952754066 5.808657646630043 9.469574781231849
265 23 5 8.861242189860825 2.541516871060808 7.106392173324634 6.747527175345855
266 23 6 -8.861242189860825 2.364839233225389 7.15845863591144 7.1545969026581755
267 23 3 0.0 2.436058818500319 7.270488601102362 7.640247128157513
268 23 3 0.0 2.8621702796285375 7.269369433648089 7.6490782350547315
269 23 1 0.0 2.3604823432444113 7.413570012570036 8.176668113681512
270 23 2 0.0 2.365161785373805 7.123529090961634 8.527879173543012
271 23 1 0.0 2.3389739876429188 7.359414836049413 8.919994444951627
272 23 1 0.0 2.3402779586236004 7.381279853390173 9.405060278962075
273 23 1 0.0 3.0588803348544444 7.095729088116731 8.086051424300582
274 23 1 0.0 3.0663514697184313 7.369489598384201 8.49855393336302
275 23 1 0.0 3.048712676921202 7.236058159091418 8.92595519087922
276 23 1 0.0 3.062799838143235 7.34559079812633 9.405195688055997
277 24 5 8.861242189860825 3.068506591893886 8.295033800877693 6.802815540960868
278 24 6 -8.861242189860825 3.2204275588130096 8.256014505844346 7.2211804314057915
279 24 3 0.0 3.1206932971957126 8.156391673425293 7.704509979721872
280 24 3 0.0 2.6948492264925408 8.152944417873499 7.687329695505413
281 24 1 0.0 3.1646634451736197 8.028762181854706 8.24830121411101
282 24 2 0.0 3.1357104990943623 8.328143801821575 8.590393620478755
283 24 1 0.0 3.140110913768107 8.103282063916595 8.989768265060148
284 24 1 0.0 3.1093280705124102 8.094557928026731 9.474273114016226
285 24 1 0.0 2.4701025601250266 8.336134393295293 8.10652148025861
286 24 1 0.0 2.4400244116260645 8.07358716939308 8.525237631159175
287 24 1 0.0 2.430186696956763 8.2187433716213 8.949053401576325
288 24 1 0.0 2.3878434591009565 8.122087359046542 9.429399075753295
289 25 5 8.861242189860825 3.7581925382207597 0.38352983039891336 6.552017439981176
290 25 6 -8.861242189860825 3.7789077044137307 0.27772159173253336 6.985615370847375
291 25 3 0.0 3.6389408511779595 0.38144089369442197 7.457982463637277
292 25 3 0.0 3.459270460315026 0.7626088678776868 7.394109586812819
293 25 1 0.0 3.532174773638145 0.3506599005435356 8.007150109058632
294 25 2 0.0 3.7868423174211525 0.5397101400790577 8.334104679343593
295 25 1 0.0 3.5775790832929046 0.48796803786535226 8.738596861292953
296 25 1 0.0 3.5489017765434694 0.5672133966158951 9.216787647320851
297 25 1 0.0 3.525689650150334 1.0890922629331101 7.779840668678961
298 25 1 0.0 3.2675148288464753 1.0550709796281081 8.20096685968098
299 25 1 0.0 3.3884970548611264 1.1722547390785185 8.616199539559533
300 25 1 0.0 3.2751074238316744 1.2250384024834944 9.091829624512165
301 26 5 8.861242189860825 3.390169009420838 1.4551635419595759 6.660081711420068
302 26 6 -8.861242189860825 3.2487690893529537 1.4509383537882887 7.0838975647352145
303 26 3 0.0 3.3448740173442237 1.552728645358203 7.567510698668603
304 26 3 0.0 3.761225066322661 1.6389291232968617 7.537989521399612
305 26 1 0.0 3.296846386380127 1.6523191944195836 8.116788985907283
306 26 2 0.0 3.3950807877742735 1.353582771954499 8.446336242352587
307 26 1 0.0 3.361976281869022 1.5607044121029154 8.85387395769739
308 26 1 0.0 3.407961142582061 1.5599950663334787 9.337251172780666
309 26 1 0.0 4.031940428128362 1.4895464280646609 7.94319241723143
310 26 1 0.0 4.026108649198957 1.7396790444004206 8.370461207830994
311 26 1 0.0 4.078920441822107 1.5859249653441796 8.78802259093893
312 26 1 0.0 4.119203246791412 1.6738105774844574 9.270226610065716
313 27 5 8.861242189860825 3.5490284525105165 3.1269000114665366 6.608465960893741
314 27 6 -8.861242189860825 3.7678910021235668 3.1250199116910964 6.9979878687926975
315 27 3 0.0 3.7860392262969498 2.971866120915573 7.477251514696921
316 27 3 0.0 3.391684555034041 2.8144071476274815 7.5138750491226025
317 27 1 0.0 3.9560457784499095 2.841986442857507 7.995093777439953
318 27 2 0.0 3.8767210281305813 3.0927377579548976 8.367016086422403
319 27 1 0.0 4.022136305645913 2.8652481747726624 8.737401234837096
320 27 1 0.0 4.0719943185950065 2.8216828869681896 9.218426064644419
321 27 1 0.0 3.1846938749647813 2.8819305284660732 7.974729510908003
322 27 1 0.0 3.3146030606038748 2.60586866521296 8.364694132334966
323 27 1 0.0 3.320043418574782 2.7160710003932014 8.798989836614304
324 27 1 0.0 3.3896331755264915 2.5867300527946355 9.268346296313327
325 28 5 8.861242189860825 4.296236948051817 3.5792527787917137 6.471075713992334
326 28 6 -8.861242189860825 4.28599937216265 3.411082892669107 6.8848942111296125
327 28 3 0.0 4.121759528513414 3.4523628529314263 7.359025334969616
328 28 3 0.0 3.9621622945127686 3.8471973003943676 7.342152271062221
329 28 1 0.0 3.980397597513718 3.347987542304736 7.891053686306128
330 28 2 0.0 4.222128655240242 3.475006695373949 8.255645337937274
331 28 1 0.0 3.9865440256839633 3.375878817981378 8.636113231192324
332 28 1 0.0 3.9319277741882597 3.3866101818354624 9.118472584320541
333 28 1 0.0 4.018210441504625 4.110896504147624 7.774717547872087
334 28 1 0.0 3.7335577327670944 4.029307830109237 8.171548845148287
335 28 1 0.0 3.8336078731688956 4.079194520503442 8.605470725740416
336 28 1 0.0 3.6935786572112166 4.068346066321412 9.076789546688222
337 29 5 8.861242189860825 3.939747557740271 4.9816019396310685 6.485483603420918
338 29 6 -8.861242189860825 4.024146533253765 5.197396251435041 6.867506240259176
339 29 3 0.0 4.043756321666155 5.184255328335912 7.370419608836204
340 29 3 0.0 3.852245587388014 4.809316447173472 7.436712084567249
341 29 1 0.0 4.151270400260128 5.298139617593658 7.908381186641324
342 29 2 0.0 3.856066665982226 5.486029653915318 8.200009257091612
343 29 1 0.0 4.038572745844256 5.488377026611546 8.620447471592009
344 29 1 0.0 4.009113302952547 5.574899213469678 9.097327640034436
345 29 1 0.0 3.5666258535278628 4.795436723487232 7.858636372139046
346 29 1 0.0 3.765827569019722 4.756144351032794 8.310226607676608
347 29 1 0.0 3.6123384871671185 4.9131853902846 8.700823746263508
348 29 1 0.0 3.6557904735717335 4.9503848250622635 9.189286056159787
349 30 5 8.861242189860825 3.873472608339027 5.65000032862169 6.4772473126126915
350 30 6 -8.861242189860825 3.9696462304793436 5.550913934292439 6.9021757630543785
351 30 3 0.0 3.829716343460281 5.561584220403645 7.385688798729847
352 30 3 0.0 3.4908768489778392 5.818083236482507 7.353342701297467
353 30 1 0.0 3.786264815893309 5.465878605154336 7.9360377494802545
354 30 2 0.0 3.9465796195099285 5.739974292400523 8.26263468750867
355 30 1 0.0 3.8123422509137317 5.583220566216496 8.671891171583455
356 30 1 0.0 3.7825786154471968 5.623578354729642 9.154854956517715
357 30 1 0.0 3.4252297079310297 6.124631056719987 7.755226105188383
358 30 1 0.0 3.240656247626603 5.960333543771196 8.184292440165809
359 30 1 0.0 3.3216631080369265 6.105801071159876 8.60030205300114
360 30 1 0.0 3.2289312757420117 6.083567205863821 9.082768387342426
361 31 5 8.861242189860825 3.4253976973867344 6.996553192199236 6.5593139428967895
362 31 6 -8.861242189860825 3.294268414557776 6.962426943300012 6.98507464734515
363 31 3 0.0 3.348638926616167 7.113116981785078 7.4623748083286205
364 31 3 0.0 3.7086648903306583 7.337752649399424 7.422747285360934
365 31 1 0.0 3.268706194679034 7.214423939704228 8.007607993555327
366 31 2 0.0 3.4650122274382507 6.983974862758631 8.347978389436625
367 31 1 0.0 3.361540430919344 7.184732862660582 8.746816808295666
368 31 1 0.0 3.4047497904649244 7.221978211008368 9.229014255325401
369 31 1 0.0 4.014400615697641 7.310714347674216 7.829669857869588
370 31 1 0.0 3.921455312883576 7.562141917848114 8.245968191354264
371 31 1 0.0 4.024535787050154 7.455534816118624 8.668811250462426
372 31 1 0.0 4.0314572664530965 7.573666878256376 9.146162494597652
373 32 5 8.861242189860825 3.907740073585354 7.710764626094327 6.527501067155119
374 32 6 -8.861242189860825 4.131585820458675 7.815765972150852 6.899656231118453
375 32 3 0.0 4.155603358341356 7.8013797070119795 7.402344282701517
376 32 3 0.0 3.761456976333358 7.66236312631171 7.485850199438336
377 32 1 0.0 4.332005823997674 7.819234808780726 7.933846806760835
378 32 2 0.0 4.257937470048252 8.163683644953547 8.22257456808202
379 32 1 0.0 4.407672758155657 8.047010217067804 8.639766282139533
380 32 1 0.0 4.463625744919574 8.13823381731596 9.113386552691631
381 32 1 0.0 3.560532266965431 7.8561065496721945 7.912328956954925
382 32 1 0.0 3.694923185318236 7.698276220602563 8.36198173756562
383 32 1 0.0 3.706150444276536 7.924522801295379 8.748599564767895
384 32 1 0.0 3.7815225724547 7.92999325412234 9.234558840530026
385 33 5 8.861242189860825 4.496919662219107 0.510042191392174 6.7568208867722515
386 33 6 -8.861242189860825 4.439651304219725 0.27682592667800476 7.133599570055102
387 33 3 0.0 4.453352373672816 0.26767482733273107 7.63679696872841
388 33 3 0.0 4.6460572622682195 0.6413012192140009 7.706928013857245
389 33 1 0.0 4.382611111896345 0.12918091377508586 8.175078193944362
390 33 2 0.0 4.697895103389557 8.647305422377784 8.437955373913791
391 33 1 0.0 4.543706340133127 8.62461887233139 8.868992979338083
392 33 1 0.0 4.60537815628885 8.517555864495804 9.338570174369034
393 33 1 0.0 4.9589285471466145 0.6395973282577672 8.109296053588372
394 33 1 0.0 4.7898397166023905 0.6569681821524613 8.574340326363583
395 33 1 0.0 4.970062538465713 0.48452720765615653 8.946591257489217
396 33 1 0.0 4.959388677753565 0.4254749419894023 9.434716446223227
397 34 5 8.861242189860825 4.767450635958199 1.8449677013730066 6.685899776039745
398 34 6 -8.861242189860825 4.895297791802101 1.654262796865392 7.069199151555672
399 34 3 0.0 4.848659830630898 1.6279255293237322 7.569809112374674
400 34 3 0.0 4.611087761281538 1.9757347881074503 7.634912489084558
401 34 1 0.0 4.868395272602174 1.4618772083784655 8.10457077430612
402 34 2 0.0 5.160852583152474 1.6188283381326318 8.416548187478465
403 34 1 0.0 5.052827239841384 1.4453600483414828 8.826818280462243
404 34 1 0.0 5.1183198643828955 1.4140717042802442 9.306922850638836
405 34 1 0.0 4.716167915735166 2.218621227892719 8.070522087293043
406 34 1 0.0 4.5621081131933 2.0499122810230417 8.509796287887333
407 34 1 0.0 4.753774615964239 2.09516238298048 8.912292611992182
408 34 1 0.0 4.740225242095472 2.023932052528717 9.398718305958887
409 35 5 8.861242189860825 4.779729111642065 2.359394659617548 6.721925587826117
410 35 6 -8.861242189860825 4.53850907497602 2.41551860598485 7.093805492750443
411 35 3 0.0 4.529496455641071 2.5283203017356564 7.58439048445263
412 35 3 0.0 4.948120548757656 2.5210941901120827 7.66408910591352
413 35 1 0.0 4.367758734230952 2.6744744987919224 8.100541070799414
414 35 2 0.0 4.30957298711654 2.385707493182741 8.447993049149481
415 35 1 0.0 4.221940516958694 2.623406154240753 8.829964472508252
416 35 1 0.0 4.142757009506782 2.647058149517308 9.308440384038741
417 35 1 0.0 5.066702957800274 2.34626752838715 8.127948173043487
418 35 1 0.0 5.009421399976088 2.621427753935479 8.535581130776661
419 35 1 0.0 4.918863667037285 2.4898584900766307 8.954240582768541
420 35 1 0.0 4.854553656796826 2.6009624835685683 9.428990439506284
421 36 5 8.861242189860825 4.733200872829807 3.801019030032614 6.7189499756902284
422 36 6 -8.861242189860825 4.525801082187562 3.809990320976521 7.11459692678664
423 36 3 0.0 4.562906625684119 3.8085039251674786 7.616692588214115
424 36 3 0.0 4.977016470594149 3.7150676510811493 7.654546482638602
425 36 1 0.0 4.457313138201366 3.8582044483886557 8.164699377426619