Lipid soup setup

3840 atoms
1408 bonds
1024 angles
0 dihedrals
0 impropers

6 atom types
2 bond types
3 angle types
0 dihedral types
0 improper types

0 10.373608390765556 xlo xhi
0 10.373608390765556 ylo yhi
0 11.89461176470588 zlo zhi

Masses

1 1
2 1
3 1
4 1
5 1
6 1

Atoms

1 1 5 8.861242189860825 0.5408848083618862 0.66550766871205 2.7410864682855767
2 1 6 -8.861242189860825 0.677021636326583 0.4804961261382251 3.124321592351335
3 1 3 0.0 0.6321014463879296 0.45248614150250577 3.6249978362970126
4 1 3 0.0 0.38029672788416824 0.7901106148967143 3.6902229617792273
5 1 1 0.0 0.6593667112118993 0.2876738187106427 4.1598109543300845
6 1 2 0.0 0.9453792850435211 0.4568491954150282 4.471373695174159
7 1 1 0.0 0.8451610714676533 0.2792293394551675 4.881848746783781
8 1 1 0.0 0.9124566523147202 0.2509417511061481 5.361890161446865
9 1 1 0.0 0.475651958683785 1.0373887145403975 4.125599011808026
10 1 1 0.0 0.32927428903871886 0.8626174690225861 4.565130062349738
11 1 1 0.0 0.5193500005133579 0.9160282645578548 4.9673805089091125
12 1 1 0.0 0.50934667168401 0.8445380806046574 5.4538539288101
13 2 5 8.861242189860825 0.6234443339941919 2.122671605818347 3.076250366000461
14 2 6 -8.861242189860825 0.4728996956395155 1.9643844873866323 3.4660107630815102
15 2 3 0.0 0.45588744417196236 2.008494003619408 3.9672532371723284
16 2 3 0.0 0.7562367967455261 2.3062322070340855 4.020096845354276
17 2 1 0.0 0.3149938535878805 1.9619412820102131 4.507543351715737
18 2 2 0.0 0.5337152681776104 1.705170495668112 4.813688003859552
19 2 1 0.0 0.35775137361357456 1.7820775916123344 5.229866184403349
20 2 1 0.0 0.35574158392612326 1.7149263310513494 5.710756308650422
21 2 1 0.0 1.0292927663859321 2.250183193763307 4.446817279711512
22 2 1 0.0 0.8505648052389215 2.373395086389797 4.891827504583367
23 2 1 0.0 0.9442028068522557 2.195773058951995 5.292413638831998
24 2 1 0.0 0.8886670786822725 2.1990335568960826 5.781057121658976
25 3 5 8.861242189860825 0.4029216147114083 3.062485105416058 2.8295869252228556
26 3 6 -8.861242189860825 0.5412823679774299 3.2232754276240208 3.222822784945048
27 3 3 0.0 0.6249460236959593 3.1412990909280594 3.7124750665579196
28 3 3 0.0 0.433791970144091 2.7624414426770354 3.7521894022824234
29 3 1 0.0 0.8035777536990572 3.1796153288403852 4.242148681700843
30 3 2 0.0 0.5532731004552677 3.3283243454240026 4.5924743172263796
31 3 1 0.0 0.7882452684386624 3.271601269975485 4.981900619037528
32 3 1 0.0 0.822526753292659 3.2923216852253367 5.465805658106104
33 3 1 0.0 0.20444021561486964 2.6933804851715313 4.202100216095238
34 3 1 0.0 0.45887460964963644 2.5910087374540534 4.614340581928448
35 3 1 0.0 0.3609623667060396 2.6944291361892185 5.039198587309928
36 3 1 0.0 0.4677238627167897 2.664094298134664 5.5183113943076565
37 4 5 8.861242189860825 0.8124075732600022 4.686263907781409 2.7611694017082273
38 4 6 -8.861242189860825 0.9904105354482108 4.675616230487305 3.170843954923334
39 4 3 0.0 0.9593527036650475 4.512638125857748 3.646188706079014
40 4 3 0.0 0.5630669862485187 4.355926437297354 3.639167657021872
41 4 1 0.0 1.0754654507137213 4.371578277445412 4.175859846286715
42 4 2 0.0 0.9590352400914992 4.614972152722943 4.5428724747983
43 4 1 0.0 1.0655630519702672 4.379426723286819 4.921359525469175
44 4 1 0.0 1.0660459469688663 4.325860010362964 5.403955647217822
45 4 1 0.0 0.3102748738796236 4.414788351201629 4.077827897479697
46 4 1 0.0 0.39930317830152057 4.130338619626383 4.473202739925951
47 4 1 0.0 0.36061114289661145 4.2316255493835255 4.907979458697913
48 4 1 0.0 0.38177502814502356 4.09246689176 5.379205794155835
49 5 5 8.861242189860825 0.4475000818044968 5.603361075564125 3.1034784845905357
50 5 6 -8.861242189860825 0.4139048479992966 5.77769265470821 3.5134925427766386
51 5 3 0.0 0.5830988678662823 5.79076324125157 3.987498478777056
52 5 3 0.0 0.8391231788662505 5.450150023837022 3.9783111729071505
53 5 1 0.0 0.6926104294602012 5.939923015809586 4.516355876533096
54 5 2 0.0 0.4917068020052864 5.763057825648149 4.8849359613718555
55 5 1 0.0 0.6936508179328008 5.928053470576417 5.261867418195553
56 5 1 0.0 0.7490488204934957 5.942552445699024 5.744039051206622
57 5 1 0.0 0.852849745934759 5.190653888022879 4.416791184306713
58 5 1 0.0 1.106720528232795 5.351724516599862 4.8101928026639165
59 5 1 0.0 1.0227947949329326 5.287442662485207 5.2456365136659
60 5 1 0.0 1.1551549444476041 5.344560907396219 5.715833917080925
61 6 5 8.861242189860825 0.9668501561322759 6.8396108766723565 3.0169209080391908
62 6 6 -8.861242189860825 0.94905517264096 7.079596933226119 3.393380332617526
63 6 3 0.0 0.8853586900320709 7.087180141487299 3.892744265046263
64 6 3 0.0 0.7494110859255472 6.687401433713058 3.950584147806342
65 6 1 0.0 0.8803875352833608 7.236119856747351 4.43285889775764
66 6 2 0.0 0.5134664747720343 7.380347847372765 4.661030026581009
67 6 1 0.0 0.6194862230509547 7.428346687220772 5.104356312634049
68 6 1 0.0 0.4961753851450993 7.524736756749011 5.563999690046559
69 6 1 0.0 0.4028403537232575 6.6390676722642095 4.321183606289343
70 6 1 0.0 0.5266451848843692 6.650000400894948 4.800466188955063
71 6 1 0.0 0.28580550785341086 6.791573022679358 5.150809383063681
72 6 1 0.0 0.23948071417610306 6.852321049089057 5.636639592126038
73 7 5 8.861242189860825 0.30615770659505226 8.590919020976953 2.771274620464653
74 7 6 -8.861242189860825 0.15889940990532017 8.718865533569284 3.17324022981828
75 7 3 0.0 0.2468372639362768 8.760550065631406 3.6672123115902777
76 7 3 0.0 0.6032929773046385 8.528357291199582 3.6932134307652302
77 7 1 0.0 0.22494400257497668 8.906451111836619 4.207735333721081
78 7 2 0.0 0.049033414481981674 8.650357472102563 4.540851461579928
79 7 1 0.0 0.12825866081082044 8.851521341763778 4.945003325913773
80 7 1 0.0 0.10890502204482044 8.855402258847743 5.430162081165067
81 7 1 0.0 0.6456613196467014 8.26348111085859 4.126614995365626
82 7 1 0.0 0.7722173862167181 8.47762706746036 4.554731832346264
83 7 1 0.0 0.6570080131390179 8.362993150662874 4.972311497086091
84 7 1 0.0 0.6960717799282401 8.43373482785958 5.457426883866521
85 8 5 8.861242189860825 1.1291283380149952 9.330269318649018 2.9863130937793576
86 8 6 -8.861242189860825 1.228253056781213 9.269579987439121 3.417732567538189
87 8 3 0.0 1.0947227937165254 9.329578745586431 3.899447111455668
88 8 3 0.0 0.7617316184888812 9.590240294754599 3.8463184723293993
89 8 1 0.0 1.0559347840230342 9.287645640777802 4.456823710045305
90 8 2 0.0 1.2268598139030198 9.587402915051786 4.754187212572916
91 8 1 0.0 1.0940815276520721 9.473596976953297 5.177862095839846
92 8 1 0.0 1.0713801028763001 9.560334016845479 5.655072713776804
93 8 1 0.0 0.7085018687150586 9.935085605945812 4.217855400011388
94 8 1 0.0 0.5254751761921926 9.81691035980868 4.662484229312229
95 8 1 0.0 0.6151728937108867 9.999127409242323 5.06190653376849
96 8 1 0.0 0.5280236062824442 10.025101695619536 5.545225930655685
97 9 5 8.861242189860825 1.9987019572077376 1.1264487591026602 3.1340772619905097
98 9 6 -8.861242189860825 1.810603254930092 1.0510714415162974 3.5322842500337677
99 9 3 0.0 1.8664967738652822 1.0147471163844826 4.031318859955493
100 9 3 0.0 2.2921062817826603 1.0200697494096613 4.053192008737786
101 9 1 0.0 1.773530123422146 0.9898155341929282 4.583285512702774
102 9 2 0.0 1.7782346566408245 0.6084475357090622 4.832346065690868
103 9 1 0.0 1.735394928111751 0.7161358239778323 5.27579872583258
104 9 1 0.0 1.7241302419521825 0.5924592406945058 5.745208836760082
105 9 1 0.0 2.483117503675906 0.7282902536873355 4.424905369447074
106 9 1 0.0 2.472280459834495 0.866759542391867 4.900160847466327
107 9 1 0.0 2.448138176626341 0.6116662178398211 5.267763155484106
108 9 1 0.0 2.447173942269403 0.5736592696952723 5.758091457139573
109 10 5 8.861242189860825 2.0758587788835374 2.3047895016199895 3.155175513103406
110 10 6 -8.861242189860825 1.9924216826081136 2.4762656331071566 3.5592372094158065
111 10 3 0.0 1.9441610767754767 2.3993937825435507 4.05445505690372
112 10 3 0.0 1.9463191856110584 1.9732112510186015 4.058198141044568
113 10 1 0.0 1.906988184042023 2.468901787748891 4.609178754692474
114 10 2 0.0 1.5199128015951975 2.456330020079806 4.848990015721746
115 10 1 0.0 1.6175307221112434 2.479430014121336 5.2962253043863
116 10 1 0.0 1.4830505437206496 2.4715486228551833 5.762724616218189
117 10 1 0.0 1.6447937240081654 1.7686266129008201 4.414595258589446
118 10 1 0.0 1.7722449869768253 1.7581745225446055 4.892931839038555
119 10 1 0.0 1.508832580928651 1.7684521734455805 5.255278613774285
120 10 1 0.0 1.45944681947474 1.7487684529160807 5.744196704021748
121 11 5 8.861242189860825 1.9361695100105012 2.903301462883585 2.8404234390843364
122 11 6 -8.861242189860825 1.99889626862075 2.7379150786514357 3.2507213367104404
123 11 3 0.0 1.9818166340509595 2.811712814041877 3.7484574759339995
124 11 3 0.0 1.918667726264072 3.2331870693562177 3.7531357066028113
125 11 1 0.0 1.9682049238918853 2.7379618928780536 4.303711553455507
126 11 2 0.0 2.3212866580882405 2.8006057412110126 4.5846098966298
127 11 1 0.0 2.18009469683247 2.7557503708093014 5.018355325862589
128 11 1 0.0 2.2607688931685472 2.7739506540570247 5.496820649980348
129 11 1 0.0 2.1476403833666557 3.471679162861577 4.141058929905738
130 11 1 0.0 1.9689551853789706 3.4552542839240536 4.602535666256399
131 11 1 0.0 2.190346483958442 3.475583454075259 4.991585185834274
132 11 1 0.0 2.183190538981706 3.4930492667558224 5.48302291240641
133 12 5 8.861242189860825 1.52141467629235 4.519261331553335 2.9722238707241253
134 12 6 -8.861242189860825 1.4421693099965625 4.605754381674659 3.403351220045518
135 12 3 0.0 1.6181674590122093 4.625455625403663 3.87464263360359
136 12 3 0.0 1.9926882068762048 4.430613492943278 3.816153565160595
137 12 1 0.0 1.686159770872183 4.7342129122397605 4.420060331994661
138 12 2 0.0 1.6007603407485023 4.440830227216459 4.757889252334825
139 12 1 0.0 1.736674545263206 4.623525781320438 5.155673031641169
140 12 1 0.0 1.8095520753063539 4.595043840967741 5.634887271137908
141 12 1 0.0 2.140519329432859 4.145057054707072 4.211621469456772
142 12 1 0.0 2.3260738743348948 4.3440866795863124 4.625282773070604
143 12 1 0.0 2.303189816168123 4.192177280466517 5.046218356349565
144 12 1 0.0 2.4270846627926055 4.236165760304636 5.520119592770108
145 13 5 8.861242189860825 1.7548471332307884 5.8571534342773415 2.93337733902127
146 13 6 -8.861242189860825 1.95283091015824 5.704856049102647 3.3038359705498457
147 13 3 0.0 1.9298561682513908 5.631568173059264 3.8014102186921033
148 13 3 0.0 1.580498625677763 5.859733486266507 3.8882440576352373
149 13 1 0.0 2.021536775354489 5.4519226722454155 4.324146986050949
150 13 2 0.0 2.240076818366055 5.687397088185302 4.647081795251511
151 13 1 0.0 2.2135792274351394 5.4606735445781895 5.044544477784794
152 13 1 0.0 2.2959435906302708 5.426247120846098 5.521828015812622
153 13 1 0.0 1.5957064915558703 6.096461767855292 4.339375773494778
154 13 1 0.0 1.5253649162603464 5.855013365633448 4.765889180869425
155 13 1 0.0 1.6943107923990177 5.943649074575033 5.171336974013839
156 13 1 0.0 1.7185557852322773 5.842185051022176 5.651945477378556
157 14 5 8.861242189860825 1.520155789910668 7.277568845651703 3.0884761724957643
158 14 6 -8.861242189860825 1.4094788343139846 7.272158841262563 3.521319112237067
159 14 3 0.0 1.5585968257728187 7.3059346277607915 4.001008704395035
160 14 3 0.0 1.9805164343609474 7.28977676742289 3.9429312928843028
161 14 1 0.0 1.5721061504776448 7.367299282074645 4.557770273630187
162 14 2 0.0 1.6131713501903915 7.026766999910651 4.85751392432502
163 14 1 0.0 1.6590027419532984 7.200359139599147 5.279233646563507
164 14 1 0.0 1.7340190868939993 7.147423603760789 5.756034464185631
165 14 1 0.0 2.2304234185010725 7.044861317290106 4.313544710217191
166 14 1 0.0 2.314628489969311 7.251646576432928 4.755481716317759
167 14 1 0.0 2.3537237982596224 7.054801753360108 5.156119437243575
168 14 1 0.0 2.44534355658032 7.088931831241723 5.638103108054677
169 15 5 8.861242189860825 1.9263400203895726 8.885469958859046 2.9603670008980654
170 15 6 -8.861242189860825 1.7273310895602756 8.801311106699568 3.351448066899621
171 15 3 0.0 1.7557072712800166 8.801224804585894 3.854114824123453
172 15 3 0.0 2.1725281040463003 8.877860976624838 3.899253596779393
173 15 1 0.0 1.6322077830118964 8.790600949223178 4.400527285296303
174 15 2 0.0 1.6821912660135696 8.428989991128594 4.672986471906096
175 15 1 0.0 1.5937098797913771 8.55149586992239 5.105705347748856
176 15 1 0.0 1.5719912667537803 8.45272602974362 5.58061740609931
177 15 1 0.0 2.383509168494075 8.641731297395978 4.29865458397732
178 15 1 0.0 2.3194977179918794 8.801519902101925 4.762905691495223
179 15 1 0.0 2.312956515030879 8.565798416634669 5.143929975343968
180 15 1 0.0 2.2861829699585705 8.554210576761273 5.6348639836493835
181 16 5 8.861242189860825 1.7495506723101588 9.939697214655164 3.0376723730079234
182 16 6 -8.861242189860825 1.7185078955267277 9.686552480052958 3.4045316873019544
183 16 3 0.0 1.663413939828932 9.663499034048478 3.904443958233422
184 16 3 0.0 1.7126872179089971 10.076390338721948 3.9979486794079695
185 16 1 0.0 1.566314223400053 9.48957836814192 4.428137394005036
186 16 2 0.0 1.8882273148492932 9.394548999581428 4.7360922975537845
187 16 1 0.0 1.6906313503388695 9.30730064815997 5.1403519066429135
188 16 1 0.0 1.71688681945687 9.208339447059528 5.614994902657848
189 16 1 0.0 1.9492420937288863 10.160533820285606 4.441517218395015
190 16 1 0.0 1.719932703033778 10.10510594580164 4.876837685281304
191 16 1 0.0 1.8919893178518414 9.986132489908611 5.273106216734073
192 16 1 0.0 1.8323927221042116 9.908585954000879 5.75508347947942
193 17 5 8.861242189860825 3.377207043658677 0.6511385422876316 3.070804847471721
194 17 6 -8.861242189860825 3.3522576140799383 0.4823902592232863 3.48376151597105
195 17 3 0.0 3.275824053552533 0.5636197425830224 3.974718505750382
196 17 3 0.0 3.2822754779799177 0.9897746132913696 3.9755081791356264
197 17 1 0.0 3.170406480806301 0.49937449014775265 4.521245038067019
198 17 2 0.0 3.484711389727538 0.5067242583381069 4.850870957998526
199 17 1 0.0 3.2770184440849226 0.49043303217633216 5.259136200013937
200 17 1 0.0 3.2897023334747715 0.5006400893468979 5.744423308416525
201 17 1 0.0 3.4886986577292496 1.1920730108449578 4.395336968944453
202 17 1 0.0 3.2450500051733293 1.2102631360710059 4.825991596543894
203 17 1 0.0 3.408320066158285 1.1985888575465355 5.243116888676148
204 17 1 0.0 3.3332905986530657 1.222554412688407 5.7285687734516815
205 18 5 8.861242189860825 3.1423184296511715 1.8387761951131476 2.8095685691535377
206 18 6 -8.861242189860825 3.048058825754947 1.9934007576054684 3.2180266929299153
207 18 3 0.0 3.124484274983477 1.9628091106282608 3.7147181321559284
208 18 3 0.0 3.3440865546267537 1.5977740652804715 3.7279269448603154
209 18 1 0.0 3.1450726974784855 2.0707584744485774 4.264131109196136
210 18 2 0.0 2.86188227468669 1.8968172265716874 4.5756475111417885
211 18 1 0.0 3.0031863977868825 2.018778817840711 4.994265220522885
212 18 1 0.0 2.966998232393297 2.0013280066900703 5.478160383263238
213 18 1 0.0 3.249489106106133 1.315098777504502 4.1413726945749305
214 18 1 0.0 3.4380290571387158 1.42672840192526 4.585388987786317
215 18 1 0.0 3.2671111838917692 1.3484650026851404 4.992143006664604
216 18 1 0.0 3.312448142430171 1.365745986103641 5.481543894549036
217 19 5 8.861242189860825 3.196642757127534 2.8789622008489775 3.076574346859233
218 19 6 -8.861242189860825 3.1519902887467475 2.759424566956731 3.5047665680432236
219 19 3 0.0 3.2232419420665606 2.8734281309809226 3.989952587260538
220 19 3 0.0 3.473117338838948 3.2156255964862006 3.943980867918622
221 19 1 0.0 3.1975244180866715 2.8866447100485324 4.549501958297912
222 19 2 0.0 3.5107999660838405 2.711401828561305 4.82993591749376
223 19 1 0.0 3.406619393189701 2.822297335068597 5.262290941085949
224 19 1 0.0 3.507418816518985 2.8265709045105125 5.737253945443753
225 19 1 0.0 3.8277258220952928 3.262264830244595 4.307118567724059
226 19 1 0.0 3.718479953772779 3.4223029282984347 4.762763278267962
227 19 1 0.0 3.9152892999286486 3.320413067273627 5.15221346560334
228 19 1 0.0 3.9538378859103904 3.387070632447506 5.637948040019646
229 20 5 8.861242189860825 2.9044729891329224 4.367058312289459 2.9492564373712407
230 20 6 -8.861242189860825 3.0601885887441447 4.164122358259124 3.315591417588866
231 20 3 0.0 3.0447616496842818 4.115559014271942 3.8164733349376516
232 20 3 0.0 2.802840574291346 4.453563261519131 3.9106940354934903
233 20 1 0.0 3.1011851536247375 3.9278868411487693 4.341380099295413
234 20 2 0.0 3.407995968650316 4.079751894211451 4.641877971828215
235 20 1 0.0 3.3295543852821443 3.8863102999696717 5.049933775822419
236 20 1 0.0 3.424893070480551 3.8367939890953724 5.523460240457629
237 20 1 0.0 2.9280191081834857 4.680843111802135 4.349403036826798
238 20 1 0.0 2.8052860580239267 4.489654261284886 4.7893375508823475
239 20 1 0.0 3.0198633523328 4.523354057009026 5.181265885485436
240 20 1 0.0 3.037729531994952 4.43147297066557 5.664076373002141
241 21 5 8.861242189860825 3.099108319647194 6.322924256566702 2.8809827281621607
242 21 6 -8.861242189860825 3.2002380532488788 6.454489394421283 3.295826142735046
243 21 3 0.0 3.245067497296081 6.33539561002941 3.782946328542009
244 21 3 0.0 3.0609952807911567 5.951039766506178 3.7767638573407236
245 21 1 0.0 3.378122393707946 6.334798019649271 4.327214281903947
246 21 2 0.0 3.095918748988676 6.45040381877 4.6655798299018905
247 21 1 0.0 3.299154559236711 6.367310552342481 5.067914250582862
248 21 1 0.0 3.2926475861772424 6.350095031499315 5.553125470353781
249 21 1 0.0 2.796956296298078 5.84207480305826 4.198902975347544
250 21 1 0.0 3.018852224428016 5.7120373138358795 4.622000367559977
251 21 1 0.0 2.883439373860443 5.7794497912530405 5.043789211318511
252 21 1 0.0 2.950837613013142 5.713099117954544 5.526409524578785
253 22 5 8.861242189860825 3.4601307792957328 7.2792851520717194 3.0646050135605822
254 22 6 -8.861242189860825 3.309208013847877 7.429993591953369 3.45721289956078
255 22 3 0.0 3.351960973752528 7.43296808339723 3.9588526316145827
256 22 3 0.0 3.631258970009057 7.114463774078953 4.005733891435758
257 22 1 0.0 3.311324540759556 7.564032944948759 4.502085776783683
258 22 2 0.0 3.0407332538490124 7.353921678405594 4.802299788906458
259 22 1 0.0 3.1259705181167323 7.515531781485449 5.222655655905048
260 22 1 0.0 3.0568662787012593 7.510556148369835 5.70324746796367
261 22 1 0.0 3.5572921356024594 6.8355499643132935 4.425885504157633
262 22 1 0.0 3.6887849197190112 6.996532797439858 4.87527746000986
263 22 1 0.0 3.5041376813539804 6.90444021735345 5.273035256899767
264 22 1 0.0 3.5084379369343566 6.948556058279734 5.762833788584788
265 23 5 8.861242189860825 3.059652512719758 8.453544841637903 3.040786182698795
266 23 6 -8.861242189860825 2.882974874884339 8.505611304224711 3.447855910011115
267 23 3 0.0 2.954194460159269 8.617641269415632 3.933506135510452
268 23 3 0.0 3.3803059212874875 8.61652210196136 3.9423372424076706
269 23 1 0.0 2.8786179849033613 8.760722680883305 4.469927121034451
270 23 2 0.0 2.883297427032755 8.470681759274903 4.821138180895951
271 23 1 0.0 2.8571096293018687 8.706567504362683 5.213253452304567
272 23 1 0.0 2.8584136002825504 8.728432521703443 5.698319286315015
273 23 1 0.0 3.5770159765133944 8.442881756430001 4.379310431653521
274 23 1 0.0 3.5844871113773813 8.716642266697471 4.7918129407159595
275 23 1 0.0 3.566848318580152 8.583210827404688 5.21921419823216
276 23 1 0.0 3.580935479802185 8.6927434664396 5.6984546954089375
277 24 5 8.861242189860825 3.586642233552836 9.849440725854544 3.0960745483138084
278 24 6 -8.861242189860825 3.7385632004719596 9.810421430821197 3.514439438758732
279 24 3 0.0 3.6388289388546626 9.710798598402144 3.9977689870748128
280 24 3 0.0 3.2129848681514908 9.70735134285035 3.980588702858354
281 24 1 0.0 3.6827990868325697 9.583169106831557 4.54156022146395
282 24 2 0.0 3.6538461407533123 9.882550726798426 4.8836526278316965
283 24 1 0.0 3.658246555427057 9.657688988893446 5.283027272413088
284 24 1 0.0 3.62746371217136 9.648964853003582 5.767532121369166
285 24 1 0.0 2.9882382017839766 9.890541318272144 4.399780487611552
286 24 1 0.0 2.9581600532850145 9.627994094369932 4.818496638512117
287 24 1 0.0 2.948322338615713 9.773150296598152 5.242312408929266
288 24 1 0.0 2.9059791007599065 9.676494284023393 5.722658083106235
289 25 5 8.861242189860825 4.483582436543291 0.48715695873070336 2.8452764473341166
290 25 6 -8.861242189860825 4.504297602736261 0.38134872006432335 3.2788743782003156
291 25 3 0.0 4.36433074950049 0.48506802202621196 3.7512414709902178
292 25 3 0.0 4.184660358637557 0.8662359962094768 3.687368594165759
293 25 1 0.0 4.257564671960675 0.45428702887532557 4.300409116411572
294 25 2 0.0 4.512232215743683 0.6433372684108477 4.627363686696532
295 25 1 0.0 4.302968981615435 0.5915951661971423 5.031855868645894
296 25 1 0.0 4.274291674865999 0.6708405249476851 5.510046654673792
297 25 1 0.0 4.251079548472864 1.1927193912649001 4.073099676031902
298 25 1 0.0 3.9929047271690057 1.1586981079598981 4.494225867033921
299 25 1 0.0 4.113886953183656 1.2758818674103085 4.909458546912473
300 25 1 0.0 4.000497322154205 1.3286655308152844 5.385088631865106
301 26 5 8.861242189860825 4.115558907743368 1.7660449269549459 2.953340718773007
302 26 6 -8.861242189860825 3.9741589876754833 1.7618197387836587 3.377156572088154
303 26 3 0.0 4.070263915666754 1.863610030353573 3.8607697060215433
304 26 3 0.0 4.486614964645191 1.9498105082922317 3.831248528752551
305 26 1 0.0 4.0222362847026565 1.9632005794149536 4.410047993260222
306 26 2 0.0 4.1204706860968034 1.664464156949869 4.739595249705527
307 26 1 0.0 4.087366180191552 1.8715857970982854 5.1471329650503295
308 26 1 0.0 4.13335104090459 1.8708764513288487 5.630510180133606
309 26 1 0.0 4.757330326450891 1.8004278130600309 4.236451424584369
310 26 1 0.0 4.751498547521487 2.0505604293957904 4.663720215183933
311 26 1 0.0 4.804310340144637 1.8968063503395496 5.08128159829187
312 26 1 0.0 4.844593145113941 1.9846919624798274 5.563485617418657
313 27 5 8.861242189860825 4.274418350833047 3.6450356531254866 2.90172496824668
314 27 6 -8.861242189860825 4.493280900446098 3.6431555533500464 3.291246876145636
315 27 3 0.0 4.51142912461948 3.490001762574523 3.77051052204986
316 27 3 0.0 4.1170744533565715 3.3325427892864314 3.807134056475541
317 27 1 0.0 4.681435676772439 3.360122084516457 4.288352784792892
318 27 2 0.0 4.602110926453111 3.6108733996138476 4.660275093775341
319 27 1 0.0 4.747526203968443 3.3833838164316123 5.030660242190034
320 27 1 0.0 4.7973842169175365 3.3398185286271396 5.5116850719973565
321 27 1 0.0 3.9100837732873117 3.400066170125023 4.267988518260942
322 27 1 0.0 4.039992958926405 3.12400430687191 4.657953139687905
323 27 1 0.0 4.045433316897313 3.2342066420521514 5.092248843967243
324 27 1 0.0 4.115023073849022 3.1048656944535855 5.561605303666265
325 28 5 8.861242189860825 5.021626846374347 4.304642677114243 2.764334721345273
326 28 6 -8.861242189860825 5.01138927048518 4.136472790991637 3.178153218482552
327 28 3 0.0 4.847149426835944 4.177752751253957 3.652284342322556
328 28 3 0.0 4.687552192835299 4.572587198716898 3.6354112784151607
329 28 1 0.0 4.705787495836248 4.073377440627266 4.184312693659067
330 28 2 0.0 4.947518553562772 4.200396593696479 4.548904345290213
331 28 1 0.0 4.711933924006494 4.101268716303908 4.929372238545264
332 28 1 0.0 4.65731767251079 4.112000080157992 5.4117315916734805
333 28 1 0.0 4.743600339827155 4.836286402470154 4.067976555225027
334 28 1 0.0 4.458947631089624 4.754697728431767 4.464807852501227
335 28 1 0.0 4.558997771491425 4.804584418825972 4.898729733093355
336 28 1 0.0 4.418968555533747 4.793735964643942 5.370048554041162
337 29 5 8.861242189860825 4.6651374560628005 5.914246094617178 2.7787426107738575
338 29 6 -8.861242189860825 4.749536431576295 6.130040406421151 3.1607652476121153
339 29 3 0.0 4.769146219988686 6.116899483322022 3.6636786161891433
340 29 3 0.0 4.577635485710544 5.741960602159582 3.7299710919201883
341 29 1 0.0 4.876660298582658 6.230783772579768 4.201640193994264
342 29 2 0.0 4.581456564304756 6.418673808901428 4.493268264444551
343 29 1 0.0 4.763962644166786 6.421021181597656 4.913706478944949
344 29 1 0.0 4.734503201275077 6.507543368455789 5.3905866473873765
345 29 1 0.0 4.292015751850393 5.728080878473342 4.151895379491986
346 29 1 0.0 4.491217467342252 5.688788506018904 4.603485615029547
347 29 1 0.0 4.3377283854896485 5.84582954527071 4.994082753616447
348 29 1 0.0 4.3811803718942635 5.8830289800483735 5.482545063512726
349 30 5 8.861242189860825 4.598862506661558 6.789898740271379 2.770506319965631
350 30 6 -8.861242189860825 4.695036128801874 6.6908123459421285 3.195434770407318
351 30 3 0.0 4.555106241782812 6.7014826320533345 3.6789478060827863
352 30 3 0.0 4.21626674730037 6.957981648132196 3.6466017086504063
353 30 1 0.0 4.511654714215839 6.6057770168040255 4.229296756833194
354 30 2 0.0 4.6719695178324585 6.879872704050212 4.555893694861611
355 30 1 0.0 4.537732149236262 6.723118977866185 4.965150178936395
356 30 1 0.0 4.507968513769727 6.763476766379331 5.448113963870655
357 30 1 0.0 4.15061960625356 7.264529468369676 4.048485112541322
358 30 1 0.0 3.9660461459491336 7.1002319554208855 4.477551447518748
359 30 1 0.0 4.047053006359457 7.245699482809565 4.89356106035408
360 30 1 0.0 3.9543211740645416 7.22346561751351 5.376027394695366
361 31 5 8.861242189860825 4.150787595709264 8.343705860512506 2.8525729502497295
362 31 6 -8.861242189860825 4.019658312880306 8.309579611613282 3.2783336546980903
363 31 3 0.0 4.074028824938697 8.460269650098349 3.755633815681561
364 31 3 0.0 4.434054788653189 8.684905317712694 3.7160062927138746
365 31 1 0.0 3.994096093001564 8.561576608017498 4.300867000908268
366 31 2 0.0 4.190402125760781 8.3311275310719 4.641237396789565
367 31 1 0.0 4.086930329241874 8.531885530973852 5.040075815648606
368 31 1 0.0 4.130139688787454 8.569130879321637 5.522273262678342
369 31 1 0.0 4.739790514020171 8.657867015987485 4.122928865222528
370 31 1 0.0 4.646845211206106 8.909294586161385 4.539227198707204
371 31 1 0.0 4.749925685372684 8.802687484431894 4.962070257815365
372 31 1 0.0 4.7568471647756265 8.920819546569646 5.4394215019505925
373 32 5 8.861242189860825 4.633129971907883 9.265171551071179 2.8207600745080583
374 32 6 -8.861242189860825 4.856975718781205 9.370172897127704 3.192915238471392
375 32 3 0.0 4.880993256663886 9.355786631988831 3.6956032900544566
376 32 3 0.0 4.486846874655888 9.216770051288561 3.7791092067912757
377 32 1 0.0 5.057395722320204 9.373641733757578 4.2271058141137745
378 32 2 0.0 4.983327368370782 9.7180905699304 4.51583357543496
379 32 1 0.0 5.133062656478187 9.601417142044657 4.933025289492472
380 32 1 0.0 5.189015643242104 9.692640742292813 5.406645560044571
381 32 1 0.0 4.285922165287961 9.410513474649045 4.205587964307864
382 32 1 0.0 4.4203130836407665 9.252683145579415 4.655240744918559
383 32 1 0.0 4.4315403425990665 9.47892972627223 5.041858572120834
384 32 1 0.0 4.5069124707772295 9.484400179099191 5.5278178478829645
385 33 5 8.861242189860825 5.429563817205216 0.613669319723964 3.050079894125192
386 33 6 -8.861242189860825 5.3722954592058345 0.38045305500979476 3.4268585774080424
387 33 3 0.0 5.385996528658925 0.37130195566452107 3.9300559760813503
388 33 3 0.0 5.5787014172543286 0.7449283475457908 4.000187021210185
389 33 1 0.0 5.315255266882454 0.23280804210687586 4.468337201297303
390 33 2 0.0 5.630539258375666 0.03535821325265753 4.731214381266732
391 33 1 0.0 5.476350495119236 0.012671663206262673 5.162251986691024
392 33 1 0.0 5.538022311274959 10.279217046136235 5.631829181721974
393 33 1 0.0 5.8915727021327235 0.7432244565895572 4.402555060941313
394 33 1 0.0 5.7224838715885 0.7605953104842513 4.867599333716523
395 33 1 0.0 5.902706693451822 0.5881543359879465 5.239850264842158
396 33 1 0.0 5.892032832739674 0.5291020703211923 5.727975453576168
397 34 5 8.861242189860825 5.700094790944309 2.1558490863683764 2.9791587833926845
398 34 6 -8.861242189860825 5.8279419467882105 1.9651441818607618 3.362458158908612
399 34 3 0.0 5.781303985617008 1.938806914319102 3.8630681197276133
400 34 3 0.0 5.543731916267648 2.28661617310282 3.928171496437497
401 34 1 0.0 5.801039427588284 1.7727585933738352 4.39782978165906
402 34 2 0.0 6.093496738138585 1.9297097231280016 4.709807194831404
403 34 1 0.0 5.985471394827494 1.7562414333368526 5.120077287815182
404 34 1 0.0 6.0509640193690055 1.724953089275614 5.600181857991776
405 34 1 0.0 5.648812070721276 2.5295026128880886 4.363781094645982
406 34 1 0.0 5.49475226817941 2.3607936660184117 4.803055295240274
407 34 1 0.0 5.686418770950349 2.40604376797585 5.205551619345123
408 34 1 0.0 5.672869397081582 2.334813437524087 5.691977313311826
409 35 5 8.861242189860825 5.712373266628174 2.877530301276498 3.0151845951790563
410 35 6 -8.861242189860825 5.4711532299621295 2.9336542476438 3.387064500103383
411 35 3 0.0 5.46214061062718 3.0464559433946063 3.87764949180557
412 35 3 0.0 5.880764703743765 3.0392298317710327 3.9573481132664594
413 35 1 0.0 5.300402889217061 3.1926101404508724 4.393800078152353
414 35 2 0.0 5.242217142102649 2.903843134841691 4.741252056502421
415 35 1 0.0 5.154584671944803 3.141541795899703 5.123223479861191
416 35 1 0.0 5.075401164492891 3.1651937911762578 5.60169939139168
417 35 1 0.0 5.999347112786383 2.8644031700461 4.4212071803964275
418 35 1 0.0 5.9420655549621975 3.139563395594429 4.828840138129601
419 35 1 0.0 5.851507822023394 3.0079941317355807 5.247499590121481
420 35 1 0.0 5.787197811782935 3.1190981252275183 5.722249446859225
421 36 5 8.861242189860825 5.665845027815917 4.526408928355144 3.012208983043168
422 36 6 -8.861242189860825 5.458445237173672 4.535380219299051 3.4078559341395795
423 36 3 0.0 5.495550780670229 4.533893823490009 3.9099515955670543
424 36 3 0.0 5.909660625580259 4.440457549403679 3.947805489991541
425 36 1 0.0 5.389957293187476 4.583594346711186 4.457958384779559